# Force coefficients
# dragDir       : (1.00000000e+00 0.00000000e+00 0.00000000e+00)
# sideDir       : (0.00000000e+00 0.00000000e+00 -1.00000000e+00)
# liftDir       : (0.00000000e+00 1.00000000e+00 0.00000000e+00)
# rollAxis      : (1.00000000e+00 0.00000000e+00 0.00000000e+00)
# pitchAxis     : (0.00000000e+00 0.00000000e+00 -1.00000000e+00)
# yawAxis       : (0.00000000e+00 1.00000000e+00 0.00000000e+00)
# magUInf       : 9.46572765e-02
# lRef          : 1.00000000e+00
# Aref          : 1.00000000e+00
# CofR          : (0.00000000e+00 0.00000000e+00 0.00000000e+00)
#
# Time          	Cd              	Cs              	Cl              	CmRoll          	CmPitch         	CmYaw           	Cd(f)           	Cd(r)           	Cs(f)           	Cs(r)           	Cl(f)           	Cl(r)           
1               	3.12732375e+01	-1.07843611e-19	-2.05075851e+01	1.02537925e+01	2.09619678e+01	1.56366188e+01	2.58904113e+01	5.38282623e+00	1.56366188e+01	-1.56366188e+01	1.07081753e+01	-3.12157604e+01
2               	6.29308319e+00	-8.40573969e-19	-6.40853463e+00	3.20426732e+00	4.43119123e+00	3.14654159e+00	6.35080891e+00	-5.77257229e-02	3.14654159e+00	-3.14654159e+00	1.22692391e+00	-7.63545854e+00
3               	-5.35995407e+00	-1.15254218e-18	4.79730164e+00	-2.39865082e+00	-4.78469905e+00	-2.67997704e+00	-5.07862785e+00	-2.81326218e-01	-2.67997704e+00	2.67997704e+00	-2.38604824e+00	7.18334987e+00
4               	-3.56203244e+00	-1.04829936e-18	3.32892940e+00	-1.66446470e+00	-2.67425586e+00	-1.78101622e+00	-3.44548092e+00	-1.16551518e-01	-1.78101622e+00	1.78101622e+00	-1.00979116e+00	4.33872056e+00
5               	1.05256973e-01	-9.34153290e-19	-4.19591501e-01	2.09795750e-01	5.13895632e-01	5.26284865e-02	2.62424237e-01	-1.57167264e-01	5.26284865e-02	-5.26284865e-02	3.04099882e-01	-7.23691382e-01
6               	1.30099350e+00	-9.27631488e-19	-1.26987106e+00	6.34935528e-01	9.65426240e-01	6.50496751e-01	1.28543228e+00	1.55612228e-02	6.50496751e-01	-6.50496751e-01	3.30490712e-01	-1.60036177e+00
7               	8.24717866e-01	-9.56136141e-19	-5.16192626e-01	2.58096313e-01	2.52777914e-01	4.12358933e-01	6.70455246e-01	1.54262620e-01	4.12358933e-01	-4.12358933e-01	-5.31839881e-03	-5.10874227e-01
8               	2.29481051e-01	-9.67683450e-19	2.77680302e-02	-1.38840151e-02	-1.22328814e-01	1.14740526e-01	1.00856510e-01	1.28624541e-01	1.14740526e-01	-1.14740526e-01	-1.08444799e-01	1.36212829e-01
9               	3.39250820e-02	-9.63680487e-19	-3.00465747e-02	1.50232874e-02	-4.27462070e-02	1.69625410e-02	3.19858284e-02	1.93925365e-03	1.69625410e-02	-1.69625410e-02	-5.77694943e-02	2.77229196e-02
10              	8.90640680e-02	-9.58946511e-19	-2.13440097e-01	1.06720049e-01	9.37708521e-02	4.45320340e-02	1.51252083e-01	-6.21880146e-02	4.45320340e-02	-4.45320340e-02	-1.29491965e-02	-2.00490901e-01
11              	1.72772825e-01	-9.57842603e-19	-2.89704169e-01	1.44852085e-01	1.35256009e-01	8.63864126e-02	2.31238497e-01	-5.84656719e-02	8.63864126e-02	-8.63864126e-02	-9.59607571e-03	-2.80108093e-01
12              	2.00817201e-01	-9.58331259e-19	-2.79867477e-01	1.39933738e-01	1.23247336e-01	1.00408600e-01	2.40342339e-01	-3.95251379e-02	1.00408600e-01	-1.00408600e-01	-1.66864026e-02	-2.63181074e-01
13              	1.82273462e-01	-9.59059143e-19	-2.39091726e-01	1.19545863e-01	9.89509557e-02	9.11367310e-02	2.10682594e-01	-2.84091320e-02	9.11367310e-02	-9.11367310e-02	-2.05949074e-02	-2.18496819e-01
14              	1.55093033e-01	-9.59313138e-19	-2.21586287e-01	1.10793144e-01	9.01538396e-02	7.75465167e-02	1.88339660e-01	-3.32466269e-02	7.75465167e-02	-7.75465167e-02	-2.06393039e-02	-2.00946983e-01
15              	1.40733570e-01	-9.59151784e-19	-2.28440624e-01	1.14220312e-01	9.50945138e-02	7.03667851e-02	1.84587097e-01	-4.38535271e-02	7.03667851e-02	-7.03667851e-02	-1.91257985e-02	-2.09314826e-01
16              	1.36325587e-01	-9.58917576e-19	-2.42734576e-01	1.21367288e-01	1.02269741e-01	6.81627934e-02	1.89530081e-01	-5.32044944e-02	6.81627934e-02	-6.81627934e-02	-1.90975474e-02	-2.23637028e-01
17              	1.35126075e-01	-9.58744076e-19	-2.50318657e-01	1.25159328e-01	1.06860788e-01	6.75630376e-02	1.92722366e-01	-5.75962907e-02	6.75630376e-02	-6.75630376e-02	-1.82985402e-02	-2.32020116e-01
18              	1.33002547e-01	-9.58579260e-19	-2.55044908e-01	1.27522454e-01	1.10441949e-01	6.65012735e-02	1.94023728e-01	-6.10211807e-02	6.65012735e-02	-6.65012735e-02	-1.70805055e-02	-2.37964403e-01
19              	1.29906431e-01	-9.58409784e-19	-2.60355459e-01	1.30177730e-01	1.14643137e-01	6.49532154e-02	1.95130945e-01	-6.52245143e-02	6.49532154e-02	-6.49532154e-02	-1.55345930e-02	-2.44820866e-01
20              	1.26534482e-01	-9.58237223e-19	-2.68047678e-01	1.34023839e-01	1.19676973e-01	6.32672408e-02	1.97291080e-01	-7.07565982e-02	6.32672408e-02	-6.32672408e-02	-1.43468657e-02	-2.53700812e-01
21              	1.23592753e-01	-9.58071107e-19	-2.76217733e-01	1.38108866e-01	1.24746179e-01	6.17963764e-02	1.99905243e-01	-7.63124900e-02	6.17963764e-02	-6.17963764e-02	-1.33626875e-02	-2.62855045e-01
22              	1.21234336e-01	-9.57922559e-19	-2.82985564e-01	1.41492782e-01	1.29033646e-01	6.06171678e-02	2.02109950e-01	-8.08756142e-02	6.06171678e-02	-6.06171678e-02	-1.24591359e-02	-2.70526428e-01
23              	1.18549121e-01	-9.57903792e-19	-2.83352097e-01	1.41676049e-01	1.29335046e-01	5.92745605e-02	2.00950609e-01	-8.24014881e-02	5.92745605e-02	-5.92745605e-02	-1.23410023e-02	-2.71011095e-01
24              	1.15903129e-01	-9.57926862e-19	-2.81656540e-01	1.40828270e-01	1.28315106e-01	5.79515646e-02	1.98779834e-01	-8.28767052e-02	5.79515646e-02	-5.79515646e-02	-1.25131637e-02	-2.69143376e-01
25              	1.13708357e-01	-9.57895401e-19	-2.82977615e-01	1.41488807e-01	1.29145535e-01	5.68541784e-02	1.98342986e-01	-8.46346289e-02	5.68541784e-02	-5.68541784e-02	-1.23432720e-02	-2.70634343e-01
26              	1.12060331e-01	-9.57807126e-19	-2.87136070e-01	1.43568035e-01	1.31813216e-01	5.60301656e-02	1.99598201e-01	-8.75378695e-02	5.60301656e-02	-5.60301656e-02	-1.17548192e-02	-2.75381251e-01
27              	1.10622530e-01	-9.57704631e-19	-2.92025810e-01	1.46012905e-01	1.34910340e-01	5.53112652e-02	2.01324170e-01	-9.07016400e-02	5.53112652e-02	-5.53112652e-02	-1.11025657e-02	-2.80923245e-01
28              	1.09268970e-01	-9.57609563e-19	-2.96207027e-01	1.48103513e-01	1.37618206e-01	5.46344849e-02	2.02737998e-01	-9.34690285e-02	5.46344849e-02	-5.46344849e-02	-1.04853075e-02	-2.85721719e-01
29              	1.07928858e-01	-9.57525388e-19	-2.99807055e-01	1.49903527e-01	1.39927202e-01	5.39644290e-02	2.03867956e-01	-9.59390983e-02	5.39644290e-02	-5.39644290e-02	-9.97632557e-03	-2.89830729e-01
30              	1.06655133e-01	-9.57455380e-19	-3.02734470e-01	1.51367235e-01	1.41817541e-01	5.33275666e-02	2.04694802e-01	-9.80396683e-02	5.33275666e-02	-5.33275666e-02	-9.54969441e-03	-2.93184776e-01
31              	1.05252350e-01	-9.57426825e-19	-3.03740326e-01	1.51870163e-01	1.42446425e-01	5.26261749e-02	2.04496338e-01	-9.92439880e-02	5.26261749e-02	-5.26261749e-02	-9.42373766e-03	-2.94316588e-01
32              	1.03968822e-01	-9.57401349e-19	-3.04462014e-01	1.52231007e-01	1.42901468e-01	5.19844111e-02	2.04215418e-01	-1.00246596e-01	5.19844111e-02	-5.19844111e-02	-9.32953890e-03	-2.95132475e-01
33              	1.02842089e-01	-9.57360165e-19	-3.05981117e-01	1.52990558e-01	1.43859116e-01	5.14210443e-02	2.04411603e-01	-1.01569514e-01	5.14210443e-02	-5.14210443e-02	-9.13144227e-03	-2.96849675e-01
34              	1.01871723e-01	-9.57303394e-19	-3.08398099e-01	1.54199049e-01	1.45391741e-01	5.09358617e-02	2.05134911e-01	-1.03263188e-01	5.09358617e-02	-5.09358617e-02	-8.80730810e-03	-2.99590791e-01
35              	1.00921877e-01	-9.57248623e-19	-3.10737492e-01	1.55368746e-01	1.46869080e-01	5.04609386e-02	2.05829684e-01	-1.04907807e-01	5.04609386e-02	-5.04609386e-02	-8.49966578e-03	-3.02237826e-01
36              	1.00001214e-01	-9.57200136e-19	-3.12678394e-01	1.56339197e-01	1.48106823e-01	5.00006070e-02	2.06339804e-01	-1.06338590e-01	5.00006070e-02	-5.00006070e-02	-8.23237358e-03	-3.04446020e-01
37              	9.91069550e-02	-9.57156504e-19	-3.14437669e-01	1.57218834e-01	1.49198951e-01	4.95534775e-02	2.06772312e-01	-1.07665357e-01	4.95534775e-02	-4.95534775e-02	-8.01988330e-03	-3.06417786e-01
38              	9.82247611e-02	-9.57124669e-19	-3.15636624e-01	1.57818312e-01	1.49935880e-01	4.91123806e-02	2.06930692e-01	-1.08705931e-01	4.91123806e-02	-4.91123806e-02	-7.88243165e-03	-3.07754192e-01
39              	9.73792126e-02	-9.57095617e-19	-3.16724978e-01	1.58362489e-01	1.50590737e-01	4.86896063e-02	2.07052095e-01	-1.09672883e-01	4.86896063e-02	-4.86896063e-02	-7.77175210e-03	-3.08953226e-01
40              	9.65963519e-02	-9.57062502e-19	-3.17995135e-01	1.58997567e-01	1.51368880e-01	4.82981759e-02	2.07295743e-01	-1.10699391e-01	4.82981759e-02	-4.82981759e-02	-7.62868736e-03	-3.10366447e-01
41              	9.58685483e-02	-9.57023260e-19	-3.19595252e-01	1.59797626e-01	1.52343661e-01	4.79342741e-02	2.07731900e-01	-1.11863352e-01	4.79342741e-02	-4.79342741e-02	-7.45396487e-03	-3.12141287e-01
42              	9.51510483e-02	-9.56985945e-19	-3.21120617e-01	1.60560309e-01	1.53282260e-01	4.75755241e-02	2.08135833e-01	-1.12984785e-01	4.75755241e-02	-4.75755241e-02	-7.27804853e-03	-3.13842569e-01
43              	9.44530675e-02	-9.56950369e-19	-3.22575639e-01	1.61287819e-01	1.54167487e-01	4.72265338e-02	2.08514353e-01	-1.14061286e-01	4.72265338e-02	-4.72265338e-02	-7.12033223e-03	-3.15455307e-01
44              	9.37798049e-02	-9.56919370e-19	-3.23805158e-01	1.61902579e-01	1.54906965e-01	4.68899025e-02	2.08792481e-01	-1.15012676e-01	4.68899025e-02	-4.68899025e-02	-6.99561381e-03	-3.16809544e-01
45              	9.31290818e-02	-9.56891692e-19	-3.24915336e-01	1.62457668e-01	1.55562590e-01	4.65645409e-02	2.09022209e-01	-1.15893127e-01	4.65645409e-02	-4.65645409e-02	-6.89507821e-03	-3.18020258e-01
46              	9.25270865e-02	-9.56862560e-19	-3.26163543e-01	1.63081772e-01	1.56297080e-01	4.62635433e-02	2.09345315e-01	-1.16818228e-01	4.62635433e-02	-4.62635433e-02	-6.78469174e-03	-3.19378851e-01
47              	9.19327223e-02	-9.56834839e-19	-3.27427889e-01	1.63713945e-01	1.57042765e-01	4.59663611e-02	2.09680306e-01	-1.17747583e-01	4.59663611e-02	-4.59663611e-02	-6.67117973e-03	-3.20756709e-01
48              	9.13609133e-02	-9.56806410e-19	-3.28663298e-01	1.64331649e-01	1.57779390e-01	4.56804566e-02	2.10012105e-01	-1.18651192e-01	4.56804566e-02	-4.56804566e-02	-6.55225878e-03	-3.22111039e-01
49              	9.08057406e-02	-9.56778992e-19	-3.29841318e-01	1.64920659e-01	1.58473682e-01	4.54028703e-02	2.10323529e-01	-1.19517789e-01	4.54028703e-02	-4.54028703e-02	-6.44697756e-03	-3.23394341e-01
50              	9.02735867e-02	-9.56753409e-19	-3.30946189e-01	1.65473094e-01	1.59119101e-01	4.51367934e-02	2.10609888e-01	-1.20336301e-01	4.51367934e-02	-4.51367934e-02	-6.35399291e-03	-3.24592196e-01
51              	8.97667069e-02	-9.56728500e-19	-3.32049172e-01	1.66024586e-01	1.59759894e-01	4.48833535e-02	2.10907939e-01	-1.21141233e-01	4.48833535e-02	-4.48833535e-02	-6.26469203e-03	-3.25784480e-01
52              	8.92824353e-02	-9.56703759e-19	-3.33181926e-01	1.66590963e-01	1.60417973e-01	4.46412176e-02	2.11232181e-01	-1.21949746e-01	4.46412176e-02	-4.46412176e-02	-6.17298995e-03	-3.27008936e-01
53              	8.88044983e-02	-9.56679584e-19	-3.34310980e-01	1.67155490e-01	1.61076633e-01	4.44022491e-02	2.11557739e-01	-1.22753241e-01	4.44022491e-02	-4.44022491e-02	-6.07885703e-03	-3.28232123e-01
54              	8.83301614e-02	-9.56656860e-19	-3.35385998e-01	1.67692999e-01	1.61700940e-01	4.41650807e-02	2.11858080e-01	-1.23527918e-01	4.41650807e-02	-4.41650807e-02	-5.99205926e-03	-3.29393939e-01
55              	8.78580334e-02	-9.56635534e-19	-3.36386224e-01	1.68193112e-01	1.62280548e-01	4.39290167e-02	2.12122129e-01	-1.24264095e-01	4.39290167e-02	-4.39290167e-02	-5.91256396e-03	-3.30473660e-01
56              	8.74150380e-02	-9.56613404e-19	-3.37445113e-01	1.68722556e-01	1.62891130e-01	4.37075190e-02	2.12430075e-01	-1.25015037e-01	4.37075190e-02	-4.37075190e-02	-5.83142636e-03	-3.31613686e-01
57              	8.69897979e-02	-9.56591797e-19	-3.38520647e-01	1.69260323e-01	1.63510681e-01	4.34948989e-02	2.12755222e-01	-1.25765424e-01	4.34948989e-02	-4.34948989e-02	-5.74964254e-03	-3.32771004e-01
58              	8.65754452e-02	-9.56571463e-19	-3.39545930e-01	1.69772965e-01	1.64105872e-01	4.32877226e-02	2.13060688e-01	-1.26485243e-01	4.32877226e-02	-4.32877226e-02	-5.66709322e-03	-3.33878837e-01
59              	8.61710848e-02	-9.56551614e-19	-3.40548553e-01	1.70274276e-01	1.64690736e-01	4.30855424e-02	2.13359819e-01	-1.27188734e-01	4.30855424e-02	-4.30855424e-02	-5.58354052e-03	-3.34965012e-01
60              	8.57742311e-02	-9.56531526e-19	-3.41572047e-01	1.70786023e-01	1.65290737e-01	4.28871156e-02	2.13673139e-01	-1.27898908e-01	4.28871156e-02	-4.28871156e-02	-5.49528667e-03	-3.36076760e-01
61              	8.53819520e-02	-9.56511488e-19	-3.42602505e-01	1.71301252e-01	1.65898769e-01	4.26909760e-02	2.13992228e-01	-1.28610276e-01	4.26909760e-02	-4.26909760e-02	-5.40248362e-03	-3.37200021e-01
62              	8.49865678e-02	-9.56493202e-19	-3.43562826e-01	1.71781413e-01	1.66470384e-01	4.24932839e-02	2.14274697e-01	-1.29288129e-01	4.24932839e-02	-4.24932839e-02	-5.31102864e-03	-3.38251798e-01
63              	8.46054692e-02	-9.56475298e-19	-3.44515457e-01	1.72257729e-01	1.67037951e-01	4.23027346e-02	2.14560463e-01	-1.29954994e-01	4.23027346e-02	-4.23027346e-02	-5.21977787e-03	-3.39295680e-01
64              	8.42512794e-02	-9.56456118e-19	-3.45547728e-01	1.72773864e-01	1.67651382e-01	4.21256397e-02	2.14899504e-01	-1.30648224e-01	4.21256397e-02	-4.21256397e-02	-5.12248191e-03	-3.40425246e-01
65              	8.38993939e-02	-9.56438693e-19	-3.46495780e-01	1.73247890e-01	1.68224019e-01	4.19496970e-02	2.15197587e-01	-1.31298193e-01	4.19496970e-02	-4.19496970e-02	-5.02387112e-03	-3.41471909e-01
66              	8.35533252e-02	-9.56421804e-19	-3.47418838e-01	1.73709419e-01	1.68788441e-01	4.17766626e-02	2.15486081e-01	-1.31932756e-01	4.17766626e-02	-4.17766626e-02	-4.92097743e-03	-3.42497860e-01
67              	8.32083998e-02	-9.56405123e-19	-3.48322179e-01	1.74161089e-01	1.69345143e-01	4.16041999e-02	2.15765289e-01	-1.32556889e-01	4.16041999e-02	-4.16041999e-02	-4.81594632e-03	-3.43506232e-01
68              	8.28810602e-02	-9.56386832e-19	-3.49319096e-01	1.74659548e-01	1.69957853e-01	4.14405301e-02	2.16100078e-01	-1.33219018e-01	4.14405301e-02	-4.14405301e-02	-4.70169479e-03	-3.44617402e-01
69              	8.25456448e-02	-9.56371044e-19	-3.50178563e-01	1.75089282e-01	1.70497543e-01	4.12728224e-02	2.16362104e-01	-1.33816459e-01	4.12728224e-02	-4.12728224e-02	-4.59173863e-03	-3.45586824e-01
70              	8.22266381e-02	-9.56354623e-19	-3.51089475e-01	1.75544738e-01	1.71068863e-01	4.11133191e-02	2.16658057e-01	-1.34431419e-01	4.11133191e-02	-4.11133191e-02	-4.47587443e-03	-3.46613601e-01
71              	8.19214416e-02	-9.56338149e-19	-3.52017405e-01	1.76008702e-01	1.71650106e-01	4.09607208e-02	2.16969423e-01	-1.35047982e-01	4.09607208e-02	-4.09607208e-02	-4.35859672e-03	-3.47658808e-01
72              	8.16132872e-02	-9.56323154e-19	-3.52856113e-01	1.76428056e-01	1.72186320e-01	4.08066436e-02	2.17234700e-01	-1.35621413e-01	4.08066436e-02	-4.08066436e-02	-4.24173635e-03	-3.48614376e-01
73              	8.13113559e-02	-9.56307674e-19	-3.53711930e-01	1.76855965e-01	1.72735797e-01	4.06556779e-02	2.17511643e-01	-1.36200287e-01	4.06556779e-02	-4.06556779e-02	-4.12016823e-03	-3.49591762e-01
74              	8.10083892e-02	-9.56292975e-19	-3.54526880e-01	1.77263440e-01	1.73264463e-01	4.05041946e-02	2.17767635e-01	-1.36759245e-01	4.05041946e-02	-4.05041946e-02	-3.99897742e-03	-3.50527903e-01
75              	8.07184864e-02	-9.56277271e-19	-3.55397777e-01	1.77698889e-01	1.73827531e-01	4.03592432e-02	2.18058132e-01	-1.37339645e-01	4.03592432e-02	-4.03592432e-02	-3.87135762e-03	-3.51526420e-01
76              	8.04255849e-02	-9.56263041e-19	-3.56193401e-01	1.78096701e-01	1.74349717e-01	4.02127924e-02	2.18309493e-01	-1.37883908e-01	4.02127924e-02	-4.02127924e-02	-3.74698311e-03	-3.52446418e-01
77              	8.01395682e-02	-9.56248524e-19	-3.57001929e-01	1.78500964e-01	1.74882494e-01	4.00697841e-02	2.18570748e-01	-1.38431180e-01	4.00697841e-02	-4.00697841e-02	-3.61847084e-03	-3.53383458e-01
78              	7.98570664e-02	-9.56234726e-19	-3.57777040e-01	1.78888520e-01	1.75397303e-01	3.99285332e-02	2.18817053e-01	-1.38959987e-01	3.99285332e-02	-3.99285332e-02	-3.49121682e-03	-3.54285823e-01
79              	7.95784647e-02	-9.56221064e-19	-3.58545582e-01	1.79272791e-01	1.75911187e-01	3.97892323e-02	2.19062023e-01	-1.39483558e-01	3.97892323e-02	-3.97892323e-02	-3.36160390e-03	-3.55183978e-01
80              	7.93035410e-02	-9.56207231e-19	-3.59319803e-01	1.79659901e-01	1.76430651e-01	3.96517705e-02	2.19311672e-01	-1.40008131e-01	3.96517705e-02	-3.96517705e-02	-3.22925050e-03	-3.56090552e-01
81              	7.90273457e-02	-9.56194069e-19	-3.60059657e-01	1.80029828e-01	1.76931630e-01	3.95136729e-02	2.19543501e-01	-1.40516156e-01	3.95136729e-02	-3.95136729e-02	-3.09819880e-03	-3.56961458e-01
82              	7.87519978e-02	-9.56181278e-19	-3.60781206e-01	1.80390603e-01	1.77423593e-01	3.93759989e-02	2.19766602e-01	-1.41014604e-01	3.93759989e-02	-3.93759989e-02	-2.96700998e-03	-3.57814196e-01
83              	7.84800071e-02	-9.56168689e-19	-3.61487984e-01	1.80743992e-01	1.77909474e-01	3.92400035e-02	2.19983996e-01	-1.41503989e-01	3.92400035e-02	-3.92400035e-02	-2.83451770e-03	-3.58653466e-01
84              	7.82147159e-02	-9.56155662e-19	-3.62211885e-01	1.81105942e-01	1.78407722e-01	3.91073579e-02	2.20213300e-01	-1.41998584e-01	3.91073579e-02	-3.91073579e-02	-2.69822056e-03	-3.59513664e-01
85              	7.79493921e-02	-9.56143227e-19	-3.62914453e-01	1.81457227e-01	1.78894160e-01	3.89746960e-02	2.20431923e-01	-1.42482531e-01	3.89746960e-02	-3.89746960e-02	-2.56306672e-03	-3.60351386e-01
86              	7.76796534e-02	-9.56131402e-19	-3.63569842e-01	1.81784921e-01	1.79355926e-01	3.88398267e-02	2.20624748e-01	-1.42945094e-01	3.88398267e-02	-3.88398267e-02	-2.42899527e-03	-3.61140847e-01
87              	7.74107348e-02	-9.56119849e-19	-3.64217139e-01	1.82108569e-01	1.79813359e-01	3.87053674e-02	2.20813937e-01	-1.43403202e-01	3.87053674e-02	-3.87053674e-02	-2.29521074e-03	-3.61921928e-01
88              	7.71522583e-02	-9.56107751e-19	-3.64894416e-01	1.82447208e-01	1.80290517e-01	3.85761291e-02	2.21023337e-01	-1.43871079e-01	3.85761291e-02	-3.85761291e-02	-2.15669123e-03	-3.62737724e-01
89              	7.68960138e-02	-9.56096158e-19	-3.65544807e-01	1.82772404e-01	1.80753760e-01	3.84480069e-02	2.21220411e-01	-1.44324397e-01	3.84480069e-02	-3.84480069e-02	-2.01864322e-03	-3.63526164e-01
90              	7.66370274e-02	-9.56085401e-19	-3.66154559e-01	1.83077279e-01	1.81193717e-01	3.83185137e-02	2.21395793e-01	-1.44758766e-01	3.83185137e-02	-3.83185137e-02	-1.88356195e-03	-3.64270997e-01
91              	7.63806908e-02	-9.56074314e-19	-3.66780039e-01	1.83390020e-01	1.81644800e-01	3.81903454e-02	2.21580365e-01	-1.45199674e-01	3.81903454e-02	-3.81903454e-02	-1.74521984e-03	-3.65034820e-01
92              	7.61234714e-02	-9.56063568e-19	-3.67384369e-01	1.83692184e-01	1.82084897e-01	3.80617357e-02	2.21753920e-01	-1.45630449e-01	3.80617357e-02	-3.80617357e-02	-1.60728764e-03	-3.65777081e-01
93              	7.58656231e-02	-9.56053131e-19	-3.67965776e-01	1.83982888e-01	1.82512412e-01	3.79328116e-02	2.21915699e-01	-1.46050076e-01	3.79328116e-02	-3.79328116e-02	-1.47047595e-03	-3.66495300e-01
94              	7.56138245e-02	-9.56042244e-19	-3.68574496e-01	1.84287248e-01	1.82957400e-01	3.78069122e-02	2.22094160e-01	-1.46480336e-01	3.78069122e-02	-3.78069122e-02	-1.32984805e-03	-3.67244648e-01
95              	7.53609000e-02	-9.56032330e-19	-3.69132244e-01	1.84566122e-01	1.83372096e-01	3.76804500e-02	2.22246572e-01	-1.46885672e-01	3.76804500e-02	-3.76804500e-02	-1.19402593e-03	-3.67938218e-01
96              	7.51150013e-02	-9.56021609e-19	-3.69730435e-01	1.84865217e-01	1.83814139e-01	3.75575007e-02	2.22422718e-01	-1.47307717e-01	3.75575007e-02	-3.75575007e-02	-1.05107815e-03	-3.68679356e-01
97              	7.48659784e-02	-9.56011807e-19	-3.70281044e-01	1.85140522e-01	1.84227756e-01	3.74329892e-02	2.22573511e-01	-1.47707533e-01	3.74329892e-02	-3.74329892e-02	-9.12766027e-04	-3.69368278e-01
98              	7.46140421e-02	-9.56002331e-19	-3.70811657e-01	1.85405829e-01	1.84629380e-01	3.73070211e-02	2.22712850e-01	-1.48098808e-01	3.73070211e-02	-3.73070211e-02	-7.76448422e-04	-3.70035209e-01
99              	7.43654430e-02	-9.55992146e-19	-3.71377119e-01	1.85688560e-01	1.85053776e-01	3.71827215e-02	2.22871281e-01	-1.48505838e-01	3.71827215e-02	-3.71827215e-02	-6.34784090e-04	-3.70742335e-01
100             	7.41176223e-02	-9.55982530e-19	-3.71915513e-01	1.85957757e-01	1.85461564e-01	3.70588111e-02	2.23016568e-01	-1.48898945e-01	3.70588111e-02	-3.70588111e-02	-4.96192823e-04	-3.71419320e-01
101             	7.38712841e-02	-9.55973247e-19	-3.72436122e-01	1.86218061e-01	1.85859540e-01	3.69356420e-02	2.23153703e-01	-1.49282419e-01	3.69356420e-02	-3.69356420e-02	-3.58520495e-04	-3.72077601e-01
102             	7.36271654e-02	-9.55964032e-19	-3.72957892e-01	1.86478946e-01	1.86258528e-01	3.68135827e-02	2.23292529e-01	-1.49665363e-01	3.68135827e-02	-3.68135827e-02	-2.20418295e-04	-3.72737473e-01
103             	7.33848695e-02	-9.55954712e-19	-3.73486138e-01	1.86743069e-01	1.86662091e-01	3.66924348e-02	2.23435504e-01	-1.50050634e-01	3.66924348e-02	-3.66924348e-02	-8.09783809e-05	-3.73405160e-01
104             	7.31416587e-02	-9.55945529e-19	-3.74003574e-01	1.87001787e-01	1.87060095e-01	3.65708294e-02	2.23572616e-01	-1.50430958e-01	3.65708294e-02	-3.65708294e-02	5.83080431e-05	-3.74061882e-01
105             	7.28977350e-02	-9.55936434e-19	-3.74505086e-01	1.87252543e-01	1.87450236e-01	3.64488675e-02	2.23701411e-01	-1.50803676e-01	3.64488675e-02	-3.64488675e-02	1.97693078e-04	-3.74702779e-01
106             	7.26564191e-02	-9.55927530e-19	-3.75004232e-01	1.87502116e-01	1.87837883e-01	3.63282096e-02	2.23830326e-01	-1.51173906e-01	3.63282096e-02	-3.63282096e-02	3.35766708e-04	-3.75339999e-01
107             	7.24173085e-02	-9.55918736e-19	-3.75495303e-01	1.87747651e-01	1.88221559e-01	3.62086543e-02	2.23956306e-01	-1.51538997e-01	3.62086543e-02	-3.62086543e-02	4.73907326e-04	-3.75969210e-01
108             	7.21776757e-02	-9.55910191e-19	-3.75983099e-01	1.87991550e-01	1.88602468e-01	3.60888378e-02	2.24080387e-01	-1.51902712e-01	3.60888378e-02	-3.60888378e-02	6.10918236e-04	-3.76594018e-01
109             	7.19400568e-02	-9.55901481e-19	-3.76477035e-01	1.88238517e-01	1.88988562e-01	3.59700284e-02	2.24208546e-01	-1.52268489e-01	3.59700284e-02	-3.59700284e-02	7.50044809e-04	-3.77227080e-01
110             	7.17029869e-02	-9.55893178e-19	-3.76977545e-01	1.88488772e-01	1.89376187e-01	3.58514934e-02	2.24340266e-01	-1.52637279e-01	3.58514934e-02	-3.58514934e-02	8.87414419e-04	-3.77864959e-01
111             	7.14657396e-02	-9.55884933e-19	-3.77486194e-01	1.88743097e-01	1.89768462e-01	3.57328698e-02	2.24475967e-01	-1.53010227e-01	3.57328698e-02	-3.57328698e-02	1.02536547e-03	-3.78511559e-01
112             	7.12279451e-02	-9.55876745e-19	-3.77989200e-01	1.88994600e-01	1.90158338e-01	3.56139726e-02	2.24608573e-01	-1.53380627e-01	3.56139726e-02	-3.56139726e-02	1.16373833e-03	-3.79152938e-01
113             	7.09900224e-02	-9.55868687e-19	-3.78447447e-01	1.89223724e-01	1.90525038e-01	3.54950112e-02	2.24718735e-01	-1.53728712e-01	3.54950112e-02	-3.54950112e-02	1.30131454e-03	-3.79748762e-01
114             	7.07555994e-02	-9.55860546e-19	-3.78899876e-01	1.89449938e-01	1.90888047e-01	3.53777997e-02	2.24827738e-01	-1.54072138e-01	3.53777997e-02	-3.53777997e-02	1.43810917e-03	-3.80337985e-01
115             	7.05245700e-02	-9.55852390e-19	-3.79342329e-01	1.89671164e-01	1.91246743e-01	3.52622850e-02	2.24933449e-01	-1.54408879e-01	3.52622850e-02	-3.52622850e-02	1.57557839e-03	-3.80917907e-01
116             	7.02955764e-02	-9.55844385e-19	-3.79772549e-01	1.89886274e-01	1.91599099e-01	3.51477882e-02	2.25034062e-01	-1.54738486e-01	3.51477882e-02	-3.51477882e-02	1.71282472e-03	-3.81485373e-01
117             	7.00671496e-02	-9.55836383e-19	-3.80201318e-01	1.90100659e-01	1.91950520e-01	3.50335748e-02	2.25134234e-01	-1.55067084e-01	3.50335748e-02	-3.50335748e-02	1.84986115e-03	-3.82051179e-01
118             	6.98389568e-02	-9.55828291e-19	-3.80631082e-01	1.90315541e-01	1.92302626e-01	3.49194784e-02	2.25235019e-01	-1.55396062e-01	3.49194784e-02	-3.49194784e-02	1.98708554e-03	-3.82618167e-01
119             	6.96040627e-02	-9.55821438e-19	-3.80979093e-01	1.90489546e-01	1.92609731e-01	3.48020313e-02	2.25291578e-01	-1.55687515e-01	3.48020313e-02	-3.48020313e-02	2.12018492e-03	-3.83099277e-01
120             	6.93717787e-02	-9.55814082e-19	-3.81357599e-01	1.90678799e-01	1.92932021e-01	3.46858893e-02	2.25364689e-01	-1.55992910e-01	3.46858893e-02	-3.46858893e-02	2.25322129e-03	-3.83610820e-01
121             	6.91487691e-02	-9.55806017e-19	-3.81779685e-01	1.90889842e-01	1.93279217e-01	3.45743846e-02	2.25464227e-01	-1.56315458e-01	3.45743846e-02	-3.45743846e-02	2.38937479e-03	-3.84169060e-01
122             	6.89273683e-02	-9.55797880e-19	-3.82203703e-01	1.91101851e-01	1.93628758e-01	3.44636842e-02	2.25565535e-01	-1.56638167e-01	3.44636842e-02	-3.44636842e-02	2.52690678e-03	-3.84730609e-01
123             	6.86975487e-02	-9.55791286e-19	-3.82530570e-01	1.91265285e-01	1.93925331e-01	3.43487744e-02	2.25614060e-01	-1.56916511e-01	3.43487744e-02	-3.43487744e-02	2.66004540e-03	-3.85190616e-01
124             	6.84677428e-02	-9.55784287e-19	-3.82884208e-01	1.91442104e-01	1.94233640e-01	3.42338714e-02	2.25675975e-01	-1.57208232e-01	3.42338714e-02	-3.42338714e-02	2.79153611e-03	-3.85675744e-01
125             	6.82477089e-02	-9.55776612e-19	-3.83283551e-01	1.91641775e-01	1.94564902e-01	3.41238544e-02	2.25765630e-01	-1.57517921e-01	3.41238544e-02	-3.41238544e-02	2.92312631e-03	-3.86206677e-01
126             	6.80319049e-02	-9.55768488e-19	-3.83700510e-01	1.91850255e-01	1.94908795e-01	3.40159525e-02	2.25866207e-01	-1.57834302e-01	3.40159525e-02	-3.40159525e-02	3.05854012e-03	-3.86759050e-01
127             	6.78096276e-02	-9.55761867e-19	-3.84021902e-01	1.92010951e-01	1.95201777e-01	3.39048138e-02	2.25915765e-01	-1.58106137e-01	3.39048138e-02	-3.39048138e-02	3.19082630e-03	-3.87212728e-01
128             	6.75864997e-02	-9.55755085e-19	-3.84355426e-01	1.92177713e-01	1.95498085e-01	3.37932499e-02	2.25970963e-01	-1.58384463e-01	3.37932499e-02	-3.37932499e-02	3.32037151e-03	-3.87675798e-01
129             	6.73716157e-02	-9.55747681e-19	-3.84730349e-01	1.92365175e-01	1.95814417e-01	3.36858079e-02	2.26050983e-01	-1.58679367e-01	3.36858079e-02	-3.36858079e-02	3.44924212e-03	-3.88179591e-01
130             	6.71542385e-02	-9.55740910e-19	-3.85050899e-01	1.92525450e-01	1.96107357e-01	3.35771193e-02	2.26102569e-01	-1.58948330e-01	3.35771193e-02	-3.35771193e-02	3.58190776e-03	-3.88632807e-01
131             	6.69371563e-02	-9.55733983e-19	-3.85383659e-01	1.92691830e-01	1.96403316e-01	3.34685782e-02	2.26160408e-01	-1.59223252e-01	3.34685782e-02	-3.34685782e-02	3.71148601e-03	-3.89095145e-01
132             	6.67271659e-02	-9.55726619e-19	-3.85747114e-01	1.92873557e-01	1.96712211e-01	3.33635830e-02	2.26237140e-01	-1.59509974e-01	3.33635830e-02	-3.33635830e-02	3.83865394e-03	-3.89585768e-01
133             	6.65125073e-02	-9.55719970e-19	-3.86053222e-01	1.93026611e-01	1.96996241e-01	3.32562537e-02	2.26282865e-01	-1.59770357e-01	3.32562537e-02	-3.32562537e-02	3.96962966e-03	-3.90022852e-01
134             	6.62950274e-02	-9.55713204e-19	-3.86370668e-01	1.93185334e-01	1.97282190e-01	3.31475137e-02	2.26332848e-01	-1.60037820e-01	3.31475137e-02	-3.31475137e-02	4.09685630e-03	-3.90467524e-01
135             	6.60790930e-02	-9.55707152e-19	-3.86643600e-01	1.93321800e-01	1.97544529e-01	3.30395465e-02	2.26361346e-01	-1.60282253e-01	3.30395465e-02	-3.30395465e-02	4.22272937e-03	-3.90866329e-01
136             	6.58654584e-02	-9.55700359e-19	-3.86957637e-01	1.93478819e-01	1.97826138e-01	3.29327292e-02	2.26411548e-01	-1.60546089e-01	3.29327292e-02	-3.29327292e-02	4.34731903e-03	-3.91304956e-01
137             	6.56616641e-02	-9.55693039e-19	-3.87312478e-01	1.93656239e-01	1.98125633e-01	3.28308321e-02	2.26487071e-01	-1.60825407e-01	3.28308321e-02	-3.28308321e-02	4.46939387e-03	-3.91781872e-01
138             	6.54553857e-02	-9.55686515e-19	-3.87601550e-01	1.93800775e-01	1.98396730e-01	3.27276928e-02	2.26528468e-01	-1.61073082e-01	3.27276928e-02	-3.27276928e-02	4.59595466e-03	-3.92197505e-01
139             	6.52469872e-02	-9.55679904e-19	-3.87895609e-01	1.93947804e-01	1.98665012e-01	3.26234936e-02	2.26571298e-01	-1.61324311e-01	3.26234936e-02	-3.26234936e-02	4.71720764e-03	-3.92612816e-01
140             	6.50411557e-02	-9.55673971e-19	-3.88146093e-01	1.94073047e-01	1.98910588e-01	3.25205779e-02	2.26593624e-01	-1.61552469e-01	3.25205779e-02	-3.25205779e-02	4.83754116e-03	-3.92983634e-01
141             	6.48351676e-02	-9.55667313e-19	-3.88440972e-01	1.94220486e-01	1.99174996e-01	3.24175838e-02	2.26638070e-01	-1.61802902e-01	3.24175838e-02	-3.24175838e-02	4.95451058e-03	-3.93395482e-01
142             	6.46374981e-02	-9.55660021e-19	-3.88784245e-01	1.94392122e-01	1.99461909e-01	3.23187490e-02	2.26710871e-01	-1.62073373e-01	3.23187490e-02	-3.23187490e-02	5.06978649e-03	-3.93854031e-01
143             	6.44363935e-02	-9.55653882e-19	-3.89046939e-01	1.94523470e-01	1.99710855e-01	3.22181967e-02	2.26741666e-01	-1.62305273e-01	3.22181967e-02	-3.22181967e-02	5.18738570e-03	-3.94234325e-01
144             	6.42334876e-02	-9.55647367e-19	-3.89328290e-01	1.94664145e-01	1.99965271e-01	3.21167438e-02	2.26780889e-01	-1.62547401e-01	3.21167438e-02	-3.21167438e-02	5.30112612e-03	-3.94629416e-01