/*--------------------------------*- C++ -*----------------------------------*\
| =========                 |                                                 |
| \\      /  F ield         | OpenFOAM: The Open Source CFD Toolbox           |
|  \\    /   O peration     | Version:  v2006                                 |
|   \\  /    A nd           | Website:  www.openfoam.com                      |
|    \\/     M anipulation  |                                                 |
\*---------------------------------------------------------------------------*/
FoamFile
{
    version     2.0;
    format      ascii;
    class       volScalarField;
    location    "4000";
    object      alphat;
}
// * * * * * * * * * * * * * * * * * * * * * * * * * * * * * * * * * * * * * //

dimensions      [1 -1 -1 0 0 0 0];


internalField   nonuniform List<scalar> 
103740
(
2.5992953e-12
8.0546758e-13
6.1357329e-13
9.5316931e-12
1.1111192e-11
4.4725664e-12
3.0411994e-12
4.5373583e-12
5.5704445e-12
3.0211933e-12
2.9482273e-12
1.5761741e-12
3.2931125e-12
3.913501e-12
2.2469799e-12
1.7692401e-12
1.7787041e-12
7.5572538e-13
2.6180115e-12
2.0688871e-12
8.1387441e-13
7.9260665e-13
5.2409259e-13
4.8686665e-13
3.8853189e-13
3.2436194e-13
3.4530311e-13
2.4320714e-13
1.3909341e-13
1.122552e-13
6.9333842e-14
4.4327362e-14
2.1762729e-14
6.0043141e-15
6.8557838e-15
2.3035544e-14
4.9881679e-14
8.1470707e-14
1.373926e-13
1.9665458e-13
2.9225954e-13
3.9802486e-13
5.6068386e-13
7.380236e-13
1.0523854e-12
1.3607072e-12
2.306054e-12
2.0748614e-12
1.7705112e-12
2.3838095e-12
2.7558472e-12
3.4238989e-12
4.2608023e-12
5.4370983e-12
8.1051808e-12
1.1865617e-11
6.6573974e-12
3.6828091e-12
4.9697281e-12
5.0812102e-12
5.5694802e-12
6.6485544e-12
6.9537538e-12
1.0833157e-11
8.9466728e-12
4.7860944e-12
5.994494e-12
5.8085192e-12
6.0974139e-12
6.4106494e-12
6.7732419e-12
7.355882e-12
8.063171e-12
9.4901522e-12
1.2035643e-11
2.0586688e-11
1.2373409e-11
2.8666611e-12
5.3561464e-12
5.0414518e-12
5.3925905e-12
6.4773288e-12
6.7997241e-12
1.1234625e-11
1.0908407e-11
4.7047877e-12
5.8528556e-12
6.5469609e-12
7.3924494e-12
9.947882e-12
1.2000373e-11
2.9143378e-11
1.8056148e-11
3.9499711e-13
5.8214992e-12
5.6591568e-12
9.2327105e-12
1.7074675e-11
7.0366208e-12
1.1662663e-12
4.240554e-12
5.7323864e-12
1.0541498e-11
3.1100695e-12
3.3177632e-13
1.3748559e-12
2.5206319e-12
2.1335269e-12
8.8329432e-13
1.7129513e-12
2.2378635e-12
2.9291063e-12
1.2725469e-12
1.0092242e-12
8.7813993e-12
1.0325439e-11
4.5116996e-12
3.1070525e-12
4.3723592e-12
5.2796782e-12
3.0644347e-12
2.9149627e-12
1.7353395e-12
3.1937682e-12
3.7662623e-12
2.3035954e-12
1.8446915e-12
1.8443051e-12
9.7768804e-13
2.5838915e-12
2.0967807e-12
9.2407111e-13
8.7423216e-13
6.4563794e-13
6.135716e-13
5.4347026e-13
5.0634242e-13
5.522028e-13
4.6764258e-13
3.6369773e-13
3.5682807e-13
3.4872223e-13
3.6580639e-13
4.0228978e-13
4.5496827e-13
5.0946228e-13
3.8533653e-13
3.7082881e-13
4.0223754e-13
4.716916e-13
5.5813706e-13
6.8430995e-13
8.3048607e-13
1.0346434e-12
1.2706668e-12
1.6349174e-12
2.0622468e-12
3.0197472e-12
2.6894031e-12
2.4255842e-12
3.0048972e-12
3.4219902e-12
4.1164502e-12
4.9862745e-12
6.2058684e-12
8.939427e-12
1.2134687e-11
7.2732788e-12
4.4989786e-12
5.5205985e-12
5.6563183e-12
6.13993e-12
7.1089292e-12
7.5430428e-12
1.0960048e-11
9.082785e-12
5.415983e-12
6.3258214e-12
6.1501546e-12
6.3702648e-12
6.6204887e-12
6.9188839e-12
7.4095974e-12
8.0335861e-12
9.2898074e-12
1.1720637e-11
1.8967444e-11
1.1814221e-11
3.52019e-12
5.545391e-12
5.3167462e-12
5.6674495e-12
6.6253246e-12
7.0558274e-12
1.0994301e-11
1.058794e-11
5.2436468e-12
6.2323587e-12
6.9095595e-12
7.8003136e-12
1.0111558e-11
1.2478192e-11
2.7466324e-11
1.7586385e-11
2.3636096e-12
7.3017134e-12
7.7031781e-12
1.1891313e-11
1.8926634e-11
9.3502555e-12
4.4447793e-12
8.1296699e-12
1.1192855e-11
1.5470351e-11
7.2601619e-12
5.0575444e-12
7.7554729e-12
9.9712074e-12
8.7530251e-12
7.9282077e-12
9.469829e-12
1.0265164e-11
1.9892474e-11
1.5011407e-11
1.1908543e-11
2.4673021e-11
3.1791323e-11
2.1087808e-11
1.5322974e-11
1.6642977e-11
1.8454726e-11
1.4654864e-11
1.2704194e-11
1.0960601e-11
1.2650457e-11
1.4368393e-11
1.149734e-11
9.8562136e-12
9.7825114e-12
8.7992509e-12
1.1066381e-11
1.0232369e-11
6.2598723e-12
5.6199614e-12
5.3195104e-12
5.3058453e-12
5.5294587e-12
5.9013435e-12
6.6108538e-12
6.5658648e-12
6.0953141e-12
6.4603889e-12
7.1093806e-12
8.0190498e-12
9.3524885e-12
1.0954306e-11
1.2271243e-11
8.9690823e-12
8.0720162e-12
8.2051459e-12
8.7878643e-12
9.7204991e-12
1.0904311e-11
1.2373778e-11
1.413351e-11
1.6382666e-11
1.9052359e-11
2.3417067e-11
2.7974159e-11
2.4328135e-11
2.3910808e-11
2.6057679e-11
2.8793669e-11
3.2535905e-11
3.7146933e-11
4.3561633e-11
5.7660621e-11
6.1305783e-11
4.3307455e-11
3.5687462e-11
3.609032e-11
3.6895572e-11
3.9051562e-11
4.1468278e-11
4.5418721e-11
5.310551e-11
4.3622805e-11
3.6113003e-11
3.5405966e-11
3.4480078e-11
3.4233363e-11
3.4120114e-11
3.4160603e-11
3.4552681e-11
3.551999e-11
3.7623545e-11
4.5501206e-11
5.5940447e-11
4.0513058e-11
2.8029498e-11
2.9281267e-11
2.9392108e-11
3.0923464e-11
3.3009457e-11
3.6310128e-11
4.5674683e-11
4.1739976e-11
3.3943672e-11
3.5631118e-11
3.8303167e-11
4.2958302e-11
4.8626876e-11
6.373816e-11
9.3095598e-11
6.5302211e-11
4.741585e-11
6.2843679e-11
7.4534253e-11
1.0580459e-10
1.2118718e-10
8.5411568e-11
8.4238186e-11
1.1354605e-10
1.5773743e-10
1.6558297e-10
1.1337011e-10
1.1583103e-10
1.6115121e-10
1.9188598e-10
1.6967768e-10
1.7463461e-10
1.9584846e-10
2.0453122e-10
1.6273156e-10
1.3003715e-10
1.0126009e-10
1.5850209e-10
2.1566478e-10
1.6202041e-10
1.181859e-10
1.2029797e-10
1.3185449e-10
1.136775e-10
9.6720482e-11
8.8747675e-11
9.2933593e-11
1.059713e-10
9.0590311e-11
7.849486e-11
7.7933821e-11
7.4737938e-11
8.3167968e-11
8.0870333e-11
5.2383605e-11
4.6461853e-11
4.5319386e-11
4.5395376e-11
4.8016254e-11
5.1741893e-11
5.8035446e-11
5.8518363e-11
5.4859243e-11
5.8269406e-11
6.4430234e-11
7.2847454e-11
8.5142491e-11
9.9903772e-11
1.1209494e-10
8.2139167e-11
7.3571142e-11
7.4482663e-11
7.9383483e-11
8.7475703e-11
9.7635552e-11
1.1033081e-10
1.2530299e-10
1.4465611e-10
1.6690928e-10
2.0487496e-10
2.4049597e-10
2.0764684e-10
2.0497943e-10
2.2119744e-10
2.4359117e-10
2.7333771e-10
3.0980141e-10
3.6107886e-10
4.7365919e-10
4.7846683e-10
3.4074048e-10
2.9139874e-10
2.9100492e-10
2.9808624e-10
3.1504845e-10
3.3039923e-10
3.6429259e-10
4.0996096e-10
3.29395e-10
2.8725944e-10
2.7762728e-10
2.7098801e-10
2.6772363e-10
2.6510699e-10
2.6346234e-10
2.6363184e-10
2.6813411e-10
2.788813e-10
3.3485376e-10
3.7186795e-10
2.7021484e-10
2.225989e-10
2.2604663e-10
2.2960775e-10
2.4203062e-10
2.5450386e-10
2.823225e-10
3.3816771e-10
2.971169e-10
2.6644464e-10
2.7893844e-10
2.9920086e-10
3.3538173e-10
3.6992353e-10
4.9055722e-10
6.3373944e-10
4.3291654e-10
3.9798271e-10
5.1365741e-10
6.1866438e-10
8.6782512e-10
9.3539452e-10
6.8300345e-10
7.2499923e-10
9.7218237e-10
1.3457496e-09
1.3642075e-09
9.6414866e-10
1.0237746e-09
1.4269295e-09
1.6856396e-09
1.4900266e-09
1.5498326e-09
1.7352204e-09
1.8042193e-09
8.2746201e-10
6.6302896e-10
5.0480175e-10
7.4528078e-10
1.0487008e-09
8.1257499e-10
5.9211078e-10
5.9630008e-10
6.6133992e-10
5.8153886e-10
4.9458234e-10
4.5532501e-10
4.6868836e-10
5.4295921e-10
4.7217358e-10
4.0981441e-10
4.0694783e-10
3.9136847e-10
4.2474727e-10
4.2852689e-10
2.8131184e-10
2.4803704e-10
2.4273307e-10
2.4315267e-10
2.5760686e-10
2.775868e-10
3.1111487e-10
3.1626512e-10
2.9693767e-10
3.150008e-10
3.4840541e-10
3.9384588e-10
4.6042518e-10
5.4062252e-10
6.0772657e-10
4.4723326e-10
3.9923009e-10
4.0338482e-10
4.2919347e-10
4.7226948e-10
5.2629397e-10
5.9382381e-10
6.7313426e-10
7.7581715e-10
8.9287542e-10
1.0946415e-09
1.2819965e-09
1.1011877e-09
1.0794915e-09
1.1631507e-09
1.2799917e-09
1.4329543e-09
1.61994e-09
1.8843178e-09
2.4641308e-09
2.4677203e-09
1.7364479e-09
1.4674832e-09
1.463235e-09
1.5073882e-09
1.5960315e-09
1.6732324e-09
1.8444263e-09
2.0639893e-09
1.641544e-09
1.4265767e-09
1.3773926e-09
1.3515762e-09
1.3385006e-09
1.326677e-09
1.3183783e-09
1.3180322e-09
1.3386493e-09
1.3909371e-09
1.6638413e-09
1.797428e-09
1.2658304e-09
1.0600195e-09
1.0872168e-09
1.1225687e-09
1.1918969e-09
1.2560178e-09
1.396447e-09
1.6514763e-09
1.4162522e-09
1.2823892e-09
1.3515813e-09
1.4593778e-09
1.6364429e-09
1.7974492e-09
2.3642424e-09
2.9343222e-09
1.9183858e-09
1.812851e-09
2.3849459e-09
2.9358411e-09
4.0812324e-09
4.3080268e-09
3.1495736e-09
3.4174249e-09
4.6384886e-09
6.4053777e-09
6.4067927e-09
4.5982848e-09
5.0231424e-09
7.0681249e-09
8.3381325e-09
7.3978284e-09
7.7601568e-09
8.7036395e-09
9.0243929e-09
2.9038739e-09
2.2910567e-09
1.7091607e-09
2.4803387e-09
3.6055545e-09
2.8293147e-09
2.0743362e-09
2.0948878e-09
2.369356e-09
2.1080437e-09
1.7966122e-09
1.6502299e-09
1.6960704e-09
2.0132192e-09
1.7708709e-09
1.5410201e-09
1.5271707e-09
1.4624266e-09
1.5766318e-09
1.6640471e-09
1.1022284e-09
9.6759648e-10
9.4812946e-10
9.5008643e-10
1.0072533e-09
1.0845503e-09
1.2150887e-09
1.2476746e-09
1.1729258e-09
1.2425245e-09
1.3743415e-09
1.553022e-09
1.8156634e-09
2.1329264e-09
2.4015421e-09
1.7776988e-09
1.5806291e-09
1.5936602e-09
1.6926218e-09
1.8592386e-09
2.0679789e-09
2.3285815e-09
2.6333556e-09
3.0276352e-09
3.4741298e-09
4.2460018e-09
4.9737286e-09
4.250746e-09
4.1171161e-09
4.4150086e-09
4.8524452e-09
5.4176414e-09
6.107022e-09
7.0778339e-09
9.2088543e-09
9.3057775e-09
6.4240744e-09
5.2858226e-09
5.2068188e-09
5.381415e-09
5.7079823e-09
5.9950248e-09
6.5866842e-09
7.3819438e-09
5.8476146e-09
5.0047776e-09
4.7945735e-09
4.7209103e-09
4.6917024e-09
4.6624926e-09
4.6397326e-09
4.641013e-09
4.7113855e-09
4.8960241e-09
5.8179352e-09
6.2576035e-09
4.2535837e-09
3.4708434e-09
3.5518895e-09
3.7353084e-09
4.0106909e-09
4.2607645e-09
4.7425363e-09
5.5814858e-09
4.7129633e-09
4.2222238e-09
4.4451149e-09
4.8379706e-09
5.4322769e-09
5.9665544e-09
7.7097076e-09
9.4195584e-09
5.9141997e-09
5.3856243e-09
7.0871817e-09
8.9945895e-09
1.2413109e-08
1.3170199e-08
9.6378518e-09
1.0395721e-08
1.4177818e-08
1.9601885e-08
1.9778598e-08
1.4434095e-08
1.6010856e-08
2.2728187e-08
2.7104717e-08
2.4393946e-08
2.5756815e-08
2.9003862e-08
3.0130313e-08
7.5835176e-09
5.8283208e-09
4.3735462e-09
6.4365943e-09
9.5229553e-09
7.4673759e-09
5.5871838e-09
5.7348354e-09
6.6066897e-09
5.9084513e-09
5.05525e-09
4.6546397e-09
4.8563103e-09
5.9137269e-09
5.2350747e-09
4.5744988e-09
4.5122079e-09
4.315534e-09
4.7171766e-09
5.2195075e-09
3.4758937e-09
3.043344e-09
2.9855138e-09
2.9952531e-09
3.177528e-09
3.4201141e-09
3.8364167e-09
3.9881671e-09
3.7546896e-09
3.9726323e-09
4.3940667e-09
4.9631864e-09
5.8011124e-09
6.8143329e-09
7.6811824e-09
5.7360812e-09
5.0758385e-09
5.1036802e-09
5.4088315e-09
5.9270024e-09
6.5749917e-09
7.3820339e-09
8.3213546e-09
9.5330053e-09
1.0897944e-08
1.3246027e-08
1.5545501e-08
1.3264724e-08
1.2652377e-08
1.3426348e-08
1.4704405e-08
1.636091e-08
1.8385629e-08
2.1200636e-08
2.7357627e-08
2.829523e-08
1.9352597e-08
1.5403144e-08
1.4750185e-08
1.5123211e-08
1.5998778e-08
1.6826044e-08
1.8384321e-08
2.0695166e-08
1.6551973e-08
1.3921476e-08
1.308101e-08
1.2816777e-08
1.2743867e-08
1.2691998e-08
1.2652653e-08
1.2671497e-08
1.2865157e-08
1.337364e-08
1.5748285e-08
1.7168185e-08
1.148422e-08
8.9512767e-09
8.8681625e-09
9.3581154e-09
1.0131812e-08
1.0876321e-08
1.2115446e-08
1.4261368e-08
1.2100701e-08
1.0655633e-08
1.1027792e-08
1.2004844e-08
1.3475888e-08
1.4840126e-08
1.8746634e-08
2.2959523e-08
1.4306363e-08
1.2155385e-08
1.5311445e-08
1.9714284e-08
2.6977196e-08
2.9462658e-08
2.2054832e-08
2.3067791e-08
3.081688e-08
4.2446784e-08
4.4269265e-08
3.3323617e-08
3.6617571e-08
5.1550747e-08
6.2796541e-08
5.8291257e-08
6.170069e-08
6.9707449e-08
7.3084083e-08
1.555755e-08
1.1736285e-08
9.1937364e-09
1.4027641e-08
2.0600419e-08
1.6039451e-08
1.2444968e-08
1.3107201e-08
1.5248681e-08
1.3614337e-08
1.17442e-08
1.0965192e-08
1.1784833e-08
1.4627839e-08
1.2944748e-08
1.1375538e-08
1.1168345e-08
1.0786414e-08
1.2187624e-08
1.4045963e-08
9.3602241e-09
8.1912982e-09
8.0429217e-09
8.0857967e-09
8.5828797e-09
9.2443148e-09
1.0405435e-08
1.0963438e-08
1.0337016e-08
1.0925517e-08
1.2079976e-08
1.3632914e-08
1.5915147e-08
1.8667014e-08
2.1042549e-08
1.593665e-08
1.4028827e-08
1.4055787e-08
1.485534e-08
1.6225711e-08
1.7934991e-08
2.0056401e-08
2.2512768e-08
2.566433e-08
2.920195e-08
3.5196044e-08
4.1377956e-08
3.5518246e-08
3.3386888e-08
3.4885554e-08
3.7924416e-08
4.1988987e-08
4.7014469e-08
5.3880501e-08
6.8660583e-08
7.314071e-08
5.0658203e-08
3.9278443e-08
3.6247425e-08
3.6347413e-08
3.7994191e-08
3.9839526e-08
4.3181238e-08
4.8761109e-08
3.9848999e-08
3.3163825e-08
3.0394299e-08
2.9332193e-08
2.8972444e-08
2.8812203e-08
2.873385e-08
2.8803212e-08
2.9257252e-08
3.0437139e-08
3.5495549e-08
3.9633391e-08
2.6807171e-08
2.0000667e-08
1.8758286e-08
1.9361273e-08
2.0857593e-08
2.2518683e-08
2.5061626e-08
2.9544853e-08
2.5686708e-08
2.2380283e-08
2.2519471e-08
2.4199541e-08
2.69898e-08
2.9787577e-08
3.6793201e-08
4.5553698e-08
2.9292026e-08
2.3296437e-08
2.7173929e-08
3.4354331e-08
4.6181855e-08
5.2243716e-08
4.0994679e-08
4.1362922e-08
5.2884433e-08
7.1554489e-08
7.7812805e-08
6.1513849e-08
6.5970308e-08
9.0141796e-08
1.1197727e-07
1.0853085e-07
1.1513457e-07
1.3013967e-07
1.3837651e-07
2.6533566e-08
2.0120381e-08
1.6987149e-08
2.7058243e-08
3.853056e-08
2.9859251e-08
2.428162e-08
2.6299955e-08
3.0555363e-08
2.7138452e-08
2.3772801e-08
2.2800595e-08
2.5420641e-08
3.1791651e-08
2.7961984e-08
2.4769891e-08
2.4334316e-08
2.407761e-08
2.8401938e-08
3.3615235e-08
2.2354785e-08
1.9587447e-08
1.9240946e-08
1.9393303e-08
2.0594279e-08
2.2226264e-08
2.5148011e-08
2.6828808e-08
2.5335302e-08
2.6744829e-08
2.9526842e-08
3.3252029e-08
3.8685063e-08
4.517514e-08
5.0819226e-08
3.9356944e-08
3.4490577e-08
3.440811e-08
3.6236222e-08
3.9403459e-08
4.3341079e-08
4.8204952e-08
5.3803525e-08
6.0925018e-08
6.8892989e-08
8.2034053e-08
9.6261875e-08
8.3927773e-08
7.8204421e-08
8.0343297e-08
8.6357266e-08
9.4882338e-08
1.0565613e-07
1.2012299e-07
1.5024892e-07
1.6411083e-07
1.1824137e-07
9.1034371e-08
8.1294503e-08
7.9149902e-08
8.1002986e-08
8.409015e-08
9.0097593e-08
1.0155416e-07
8.5259543e-08
7.0980209e-08
6.3675161e-08
6.0202957e-08
5.8643706e-08
5.790031e-08
5.7564794e-08
5.7655674e-08
5.8566945e-08
6.0997762e-08
7.0559893e-08
8.0820994e-08
5.6568916e-08
4.1051525e-08
3.6279028e-08
3.5878668e-08
3.7771083e-08
4.0544823e-08
4.4874347e-08
5.2864843e-08
4.7494429e-08
4.1424277e-08
4.0491991e-08
4.2514851e-08
4.6728703e-08
5.1484055e-08
6.2398058e-08
7.8141264e-08
5.3268641e-08
4.0580853e-08
4.3419832e-08
5.2375915e-08
6.8271611e-08
7.90723e-08
6.5658517e-08
6.451566e-08
7.8234392e-08
1.025556e-07
1.1531214e-07
9.6690531e-08
1.012432e-07
1.3258463e-07
1.6619522e-07
1.6847697e-07
1.7987832e-07
2.0305718e-07
2.1909213e-07
3.9879796e-08
3.1259058e-08
2.8976462e-08
4.8051588e-08
6.5460647e-08
5.0789189e-08
4.3364086e-08
4.8120282e-08
5.5382916e-08
4.8987735e-08
4.3905839e-08
4.3620768e-08
5.0348603e-08
6.265186e-08
5.4653238e-08
4.8992481e-08
4.8614619e-08
4.9834862e-08
6.1173681e-08
7.2933107e-08
4.8524744e-08
4.2613112e-08
4.1850361e-08
4.2286451e-08
4.4907679e-08
4.860492e-08
5.5263501e-08
5.9481235e-08
5.6287248e-08
5.9296351e-08
6.5225397e-08
7.3113931e-08
8.4446875e-08
9.7748343e-08
1.0938824e-07
8.7510621e-08
7.6549309e-08
7.6018821e-08
7.9685162e-08
8.6120418e-08
9.4091173e-08
1.0387526e-07
1.1505406e-07
1.2909674e-07
1.4472831e-07
1.6955305e-07
1.9732522e-07
1.7608623e-07
1.6410438e-07
1.6623774e-07
1.7630462e-07
1.9164604e-07
2.1156951e-07
2.3790923e-07
2.9032059e-07
3.2119359e-07
2.4519681e-07
1.9198083e-07
1.685488e-07
1.6000123e-07
1.5989425e-07
1.6346639e-07
1.7253598e-07
1.927767e-07
1.6620607e-07
1.3990904e-07
1.2409543e-07
1.1523015e-07
1.104004e-07
1.0773469e-07
1.0636165e-07
1.0615312e-07
1.0768839e-07
1.122474e-07
1.2906529e-07
1.5081433e-07
1.1086147e-07
7.9907434e-08
6.7222362e-08
6.3242219e-08
6.4165823e-08
6.7574429e-08
7.38342e-08
8.6597575e-08
8.0064503e-08
7.0416886e-08
6.7254056e-08
6.8764853e-08
7.4050529e-08
8.1035698e-08
9.6792453e-08
1.2249261e-07
8.9215853e-08
6.6789441e-08
6.6115916e-08
7.5002221e-08
9.3898091e-08
1.0915392e-07
9.4910656e-08
9.1854463e-08
1.0595198e-07
1.3355184e-07
1.5279545e-07
1.3544391e-07
1.3966507e-07
1.7491062e-07
2.186922e-07
2.3022512e-07
2.4863795e-07
2.8038799e-07
3.0639287e-07
5.5606997e-08
4.6112909e-08
4.7223676e-08
8.10179e-08
1.0529698e-07
8.2111126e-08
7.316814e-08
8.2621058e-08
9.4005167e-08
8.3165685e-08
7.662858e-08
7.8893662e-08
9.3379704e-08
1.144766e-07
9.9320946e-08
9.0516508e-08
9.1478734e-08
9.7402514e-08
1.2280028e-07
1.444134e-07
9.6928504e-08
8.5456818e-08
8.3858536e-08
8.4878073e-08
9.0067071e-08
9.7686782e-08
1.1123136e-07
1.2011828e-07
1.1403804e-07
1.1970781e-07
1.3080519e-07
1.4544441e-07
1.6602792e-07
1.8961165e-07
2.1039675e-07
1.7524917e-07
1.5372336e-07
1.5204359e-07
1.5844779e-07
1.6987805e-07
1.8399406e-07
2.0119879e-07
2.2068782e-07
2.4479673e-07
2.7143753e-07
3.119466e-07
3.5787583e-07
3.2768519e-07
3.0779147e-07
3.0906155e-07
3.2364257e-07
3.4749267e-07
3.7932922e-07
4.2084674e-07
4.9968212e-07
5.5176148e-07
4.4770703e-07
3.629053e-07
3.1902398e-07
2.9873667e-07
2.930468e-07
2.950121e-07
3.0642122e-07
3.3733359e-07
2.9784902e-07
2.5551427e-07
2.2679961e-07
2.0859617e-07
1.9726823e-07
1.9024284e-07
1.8617692e-07
1.8477911e-07
1.8691455e-07
1.9472001e-07
2.2263494e-07
2.6258543e-07
2.0362002e-07
1.4906322e-07
1.2180795e-07
1.0977158e-07
1.068911e-07
1.0942113e-07
1.1713674e-07
1.3626302e-07
1.2813153e-07
1.1355788e-07
1.0668225e-07
1.0649136e-07
1.1219442e-07
1.2151791e-07
1.4359303e-07
1.8383828e-07
1.4188644e-07
1.0626708e-07
9.9100018e-08
1.0575338e-07
1.2685483e-07
1.4549086e-07
1.2904535e-07
1.2349665e-07
1.3654863e-07
1.653561e-07
1.8947394e-07
1.7474794e-07
1.7919232e-07
2.1551697e-07
2.6633551e-07
2.8784038e-07
3.1552814e-07
3.5596868e-07
3.9300218e-07
7.4988995e-08
6.6750184e-08
7.5242754e-08
1.3236579e-07
1.6482882e-07
1.2936317e-07
1.1910787e-07
1.3569759e-07
1.5304304e-07
1.3613854e-07
1.2901758e-07
1.3667746e-07
1.6346347e-07
1.9631274e-07
1.7055885e-07
1.5855032e-07
1.6357163e-07
1.7940436e-07
2.272685e-07
2.6015713e-07
1.7893929e-07
1.5866699e-07
1.5553109e-07
1.5749909e-07
1.6674436e-07
1.8075231e-07
2.049408e-07
2.2077585e-07
2.1061211e-07
2.1995629e-07
2.3811311e-07
2.6185421e-07
2.9445674e-07
3.3087905e-07
3.633274e-07
3.1559071e-07
2.7890493e-07
2.7507739e-07
2.8480021e-07
3.0254034e-07
3.2445407e-07
3.5100441e-07
3.8084952e-07
4.1720567e-07
4.5710676e-07
5.1519379e-07
5.8088933e-07
5.445296e-07
5.1737937e-07
5.1747461e-07
5.3646123e-07
5.6927723e-07
6.1410364e-07
6.7191461e-07
7.7721375e-07
8.5045978e-07
7.2644631e-07
6.1195897e-07
5.4493535e-07
5.0912945e-07
4.9437906e-07
4.9211741e-07
5.0406899e-07
5.4534652e-07
4.9149279e-07
4.3104759e-07
3.8646864e-07
3.5551825e-07
3.3430919e-07
3.1997323e-07
3.1093121e-07
3.0691683e-07
3.0935683e-07
3.2153835e-07
3.6479497e-07
4.2908035e-07
3.4994688e-07
2.6500806e-07
2.1543751e-07
1.8912697e-07
1.7793214e-07
1.7680521e-07
1.8463354e-07
2.1227183e-07
2.0045845e-07
1.7820924e-07
1.6547022e-07
1.6207354e-07
1.6742814e-07
1.7930258e-07
2.1011147e-07
2.7237853e-07
2.19275e-07
1.660752e-07
1.4896724e-07
1.5110186e-07
1.7419168e-07
1.9419977e-07
1.7242685e-07
1.6136827e-07
1.7211042e-07
2.0098554e-07
2.259411e-07
2.1478053e-07
2.1899369e-07
2.543175e-07
3.0758453e-07
3.3979508e-07
3.7687379e-07
4.2576755e-07
4.7401297e-07
1.013395e-07
9.6966342e-08
1.1876876e-07
2.1066901e-07
2.529931e-07
2.0060746e-07
1.891084e-07
2.1504394e-07
2.4119398e-07
2.1676077e-07
2.105297e-07
2.2704473e-07
2.7039963e-07
3.1701124e-07
2.7801529e-07
2.6365378e-07
2.7645265e-07
3.0794205e-07
3.8449864e-07
4.2733265e-07
3.0514998e-07
2.7269126e-07
2.6706127e-07
2.7023883e-07
2.8495942e-07
3.0767985e-07
3.454859e-07
3.6978782e-07
3.5495055e-07
3.6849619e-07
3.9472747e-07
4.2880777e-07
4.7463378e-07
5.2473999e-07
5.7005776e-07
5.1393918e-07
4.5893769e-07
4.5196822e-07
4.6497315e-07
4.8939699e-07
5.1973235e-07
5.5636686e-07
5.9735153e-07
6.4662328e-07
7.0043407e-07
7.7579083e-07
8.6012463e-07
8.2161837e-07
7.8974246e-07
7.8931129e-07
8.1249327e-07
8.538111e-07
9.111522e-07
9.8443791e-07
1.1132979e-06
1.2049482e-06
1.0694755e-06
9.3201334e-07
8.4400109e-07
7.9218789e-07
7.6667796e-07
7.5831617e-07
7.6875796e-07
8.1802347e-07
7.4967119e-07
6.7167109e-07
6.1080384e-07
5.6569832e-07
5.3258759e-07
5.0875672e-07
4.9280625e-07
4.8479105e-07
4.8716267e-07
5.0459549e-07
5.6639051e-07
6.5855569e-07
5.6036662e-07
4.4283807e-07
3.652883e-07
3.1856492e-07
2.937396e-07
2.8523959e-07
2.9097152e-07
3.2947902e-07
3.1081398e-07
2.7620266e-07
2.5429517e-07
2.4570094e-07
2.4986202e-07
2.6481096e-07
3.0782921e-07
4.0241986e-07
3.3476804e-07
2.5758187e-07
2.2624769e-07
2.2141571e-07
2.466602e-07
2.6881101e-07
2.3247353e-07
2.1145123e-07
2.1753344e-07
2.457263e-07
2.6879171e-07
2.5642318e-07
2.5947198e-07
2.9224893e-07
3.4521988e-07
3.8481692e-07
4.3076347e-07
4.8764738e-07
5.4658326e-07
1.4052287e-07
1.4323591e-07
1.8658804e-07
3.2491758e-07
3.7728885e-07
3.0490051e-07
2.9282645e-07
3.3040306e-07
3.6675194e-07
3.3409321e-07
3.3042156e-07
3.5894326e-07
4.2178596e-07
4.8205857e-07
4.2922118e-07
4.1410109e-07
4.3802843e-07
4.8913575e-07
5.9609611e-07
6.4615391e-07
4.8145879e-07
4.3428943e-07
4.2513457e-07
4.2952077e-07
4.5055998e-07
4.832959e-07
5.3576464e-07
5.6887314e-07
5.497807e-07
5.6743781e-07
6.0168776e-07
6.4605518e-07
7.0473509e-07
7.6788425e-07
8.2597632e-07
7.6696425e-07
6.9266896e-07
6.8190105e-07
6.9759575e-07
7.2818842e-07
7.6658843e-07
8.1295512e-07
8.6474754e-07
9.2638004e-07
9.9352732e-07
1.0844065e-06
1.1847741e-06
1.1479676e-06
1.1145828e-06
1.1150368e-06
1.1424267e-06
1.191444e-06
1.259962e-06
1.3468355e-06
1.4948877e-06
1.6011462e-06
1.4609235e-06
1.3083613e-06
1.2042076e-06
1.13856e-06
1.1026427e-06
1.0875832e-06
1.0949955e-06
1.1488154e-06
1.0675553e-06
9.7375234e-07
8.9801648e-07
8.3948836e-07
7.9449853e-07
7.6067776e-07
7.3712171e-07
7.2448816e-07
7.2671093e-07
7.4994991e-07
8.3142024e-07
9.5040407e-07
8.361245e-07
6.8884557e-07
5.8249396e-07
5.1227068e-07
4.6993583e-07
4.507552e-07
4.520371e-07
5.0287838e-07
4.7412066e-07
4.2200851e-07
3.8701144e-07
3.7083539e-07
3.728502e-07
3.9167419e-07
4.5087354e-07
5.8823821e-07
5.0289913e-07
3.9509946e-07
3.4510044e-07
3.3094312e-07
3.59178e-07
3.8639173e-07
3.2460831e-07
2.8369804e-07
2.8135996e-07
3.0814746e-07
3.2657801e-07
3.0491678e-07
3.0291208e-07
3.3150215e-07
3.817842e-07
4.2480517e-07
4.7749483e-07
5.4120473e-07
6.0908934e-07
2.0141315e-07
2.150537e-07
2.8949125e-07
4.8134142e-07
5.4154521e-07
4.4876795e-07
4.3727216e-07
4.8828038e-07
5.342188e-07
4.9384774e-07
4.9384851e-07
5.3587238e-07
6.1871105e-07
6.9155787e-07
6.2659796e-07
6.1251888e-07
6.4936739e-07
7.2093784e-07
8.5616781e-07
9.1108644e-07
7.0755086e-07
6.4457162e-07
6.3102789e-07
6.3632205e-07
6.6372312e-07
7.0642686e-07
7.7263307e-07
8.1397823e-07
7.9198436e-07
8.1326956e-07
8.5474223e-07
9.0844942e-07
9.7859958e-07
1.0532593e-06
1.1229936e-06
1.0656586e-06
9.7308227e-07
9.5837636e-07
9.7593325e-07
1.0116751e-06
1.0571616e-06
1.1122273e-06
1.1737992e-06
1.2465235e-06
1.3257162e-06
1.4296773e-06
1.542998e-06
1.5108386e-06
1.4791538e-06
1.4822316e-06
1.5140615e-06
1.5699025e-06
1.6479269e-06
1.7461088e-06
1.9084506e-06
2.0253808e-06
1.885677e-06
1.7250487e-06
1.6102494e-06
1.5342725e-06
1.4897129e-06
1.4685088e-06
1.4721618e-06
1.5271108e-06
1.4347531e-06
1.3278787e-06
1.2397615e-06
1.1698305e-06
1.1144915e-06
1.0717137e-06
1.0411837e-06
1.0243297e-06
1.0268325e-06
1.0562673e-06
1.1564259e-06
1.298762e-06
1.171424e-06
9.9935411e-07
8.6745612e-07
7.74734e-07
7.1418911e-07
6.8297425e-07
6.7841545e-07
7.4125704e-07
7.0058319e-07
6.2773392e-07
5.7652653e-07
5.5067538e-07
5.4964702e-07
5.7318985e-07
6.5190991e-07
8.3734432e-07
7.3417187e-07
5.9387071e-07
5.2120507e-07
4.9545471e-07
5.2710415e-07
5.6356982e-07
4.645199e-07
3.9493951e-07
3.7774858e-07
4.0122799e-07
4.1525082e-07
3.7044462e-07
3.5504179e-07
3.7641447e-07
4.2163386e-07
4.6341851e-07
5.1925125e-07
5.8772187e-07
6.6271791e-07
2.9475904e-07
3.2305165e-07
4.3540963e-07
6.7829104e-07
7.4430463e-07
6.3336783e-07
6.2392883e-07
6.8750498e-07
7.4253006e-07
6.9589847e-07
7.0009448e-07
7.5506049e-07
8.568282e-07
9.4091227e-07
8.6692247e-07
8.5544776e-07
9.0531593e-07
9.9564705e-07
1.1546579e-06
1.2132975e-06
9.7831557e-07
8.9978348e-07
8.8128581e-07
8.8695013e-07
9.200597e-07
9.7157776e-07
1.0493063e-06
1.0978965e-06
1.0749355e-06
1.0992678e-06
1.1468249e-06
1.2084685e-06
1.2881872e-06
1.372335e-06
1.4518162e-06
1.3987256e-06
1.2903642e-06
1.2721034e-06
1.2907086e-06
1.3304117e-06
1.3817241e-06
1.4441043e-06
1.5140613e-06
1.5962243e-06
1.6857877e-06
1.8001144e-06
1.923264e-06
1.8978755e-06
1.8707321e-06
1.8780562e-06
1.9145748e-06
1.9763176e-06
2.0621589e-06
2.1692849e-06
2.3409114e-06
2.4648442e-06
2.3298757e-06
2.1672371e-06
2.0469191e-06
1.9644467e-06
1.9137338e-06
1.8876826e-06
1.887568e-06
1.9407417e-06
1.839654e-06
1.7227517e-06
1.6250038e-06
1.5461059e-06
1.4826107e-06
1.4327642e-06
1.3967605e-06
1.3768689e-06
1.3805493e-06
1.4165445e-06
1.5329553e-06
1.6941249e-06
1.5565818e-06
1.3648565e-06
1.2123485e-06
1.1006836e-06
1.0240499e-06
9.8160444e-07
9.7130792e-07
1.0446393e-06
9.9175763e-07
8.9793134e-07
8.2953805e-07
7.9309229e-07
7.8855408e-07
8.1754683e-07
9.1740105e-07
1.1509904e-06
1.0327629e-06
8.611908e-07
7.6489819e-07
7.264393e-07
7.6144928e-07
8.0785778e-07
6.7031502e-07
5.6256796e-07
5.240248e-07
5.4194417e-07
5.5203353e-07
4.6784904e-07
4.2622916e-07
4.3484222e-07
4.7191858e-07
5.064556e-07
5.6031852e-07
6.3033804e-07
7.100812e-07
4.2889188e-07
4.7393148e-07
6.254567e-07
9.0907299e-07
9.794874e-07
8.5420077e-07
8.4786444e-07
9.2237021e-07
9.854954e-07
9.3508577e-07
9.4375852e-07
1.0102957e-06
1.1283885e-06
1.2227204e-06
1.1429937e-06
1.1352308e-06
1.1970423e-06
1.3031994e-06
1.4806518e-06
1.542999e-06
1.2860463e-06
1.1932681e-06
1.1695622e-06
1.1748987e-06
1.2125979e-06
1.2711104e-06
1.3575836e-06
1.4123446e-06
1.3905435e-06
1.417423e-06
1.4698295e-06
1.5378046e-06
1.6249254e-06
1.7162029e-06
1.8029244e-06
1.7546731e-06
1.6339455e-06
1.6129061e-06
1.6318899e-06
1.6743659e-06
1.7301314e-06
1.7982692e-06
1.8750178e-06
1.9647457e-06
2.0627707e-06
2.1846415e-06
2.3146701e-06
2.2976451e-06
2.2772748e-06
2.2900277e-06
2.3313175e-06
2.3979223e-06
2.4900807e-06
2.603732e-06
2.7797418e-06
2.9074845e-06
2.7806101e-06
2.6211126e-06
2.4999857e-06
2.4147247e-06
2.3605569e-06
2.3312868e-06
2.3279624e-06
2.3771399e-06
2.2701613e-06
2.1464898e-06
2.0420014e-06
1.9566226e-06
1.8873248e-06
1.8326061e-06
1.7930048e-06
1.7716996e-06
1.777737e-06
1.8206248e-06
1.9501493e-06
2.1245923e-06
1.9799419e-06
1.7736862e-06
1.6057655e-06
1.4794882e-06
1.3902233e-06
1.3386913e-06
1.3239353e-06
1.404768e-06
1.3409498e-06
1.2287307e-06
1.1445622e-06
1.0981093e-06
1.0902889e-06
1.1253798e-06
1.246051e-06
1.5236434e-06
1.3951816e-06
1.1961123e-06
1.077564e-06
1.026556e-06
1.064236e-06
1.1191863e-06
9.4870825e-07
8.0123275e-07
7.3655654e-07
7.4672808e-07
7.502053e-07
6.1668821e-07
5.3206034e-07
5.1946067e-07
5.4391304e-07
5.6286441e-07
6.0754647e-07
6.7446172e-07
7.5546215e-07
6.0532245e-07
6.6738864e-07
8.5370984e-07
1.1647714e-06
1.2384345e-06
1.103783e-06
1.1013623e-06
1.1848143e-06
1.2550176e-06
1.2032417e-06
1.2167098e-06
1.2930567e-06
1.42416e-06
1.5275502e-06
1.4457093e-06
1.4422509e-06
1.5142203e-06
1.6328248e-06
1.8237358e-06
1.8905462e-06
1.6219524e-06
1.5170553e-06
1.4881423e-06
1.4923711e-06
1.5332812e-06
1.5966814e-06
1.6890499e-06
1.7489818e-06
1.7303247e-06
1.7593974e-06
1.8154161e-06
1.8880159e-06
1.9801981e-06
2.075946e-06
2.1669267e-06
2.1226776e-06
1.9934383e-06
1.9706017e-06
1.989469e-06
2.03357e-06
2.0923649e-06
2.1646039e-06
2.2464193e-06
2.3416757e-06
2.4460755e-06
2.5726066e-06
2.7067898e-06
2.6992123e-06
2.6872865e-06
2.7060528e-06
2.7519305e-06
2.822391e-06
2.9193136e-06
3.0370484e-06
3.2127901e-06
3.3417693e-06
3.2253437e-06
3.0736556e-06
2.9561592e-06
2.8714287e-06
2.8164169e-06
2.7856839e-06
2.780009e-06
2.8237017e-06
2.7139627e-06
2.5870946e-06
2.478875e-06
2.3895478e-06
2.3168094e-06
2.2594305e-06
2.2182268e-06
2.1973216e-06
2.2069509e-06
2.2570005e-06
2.3961052e-06
2.5781124e-06
2.4293053e-06
2.2137116e-06
2.0354516e-06
1.8988514e-06
1.8006559e-06
1.7426504e-06
1.7251815e-06
1.8099345e-06
1.7371771e-06
1.6107425e-06
1.5138875e-06
1.4592448e-06
1.449041e-06
1.490895e-06
1.6306512e-06
1.9449857e-06
1.8117176e-06
1.5910439e-06
1.4531573e-06
1.3904708e-06
1.4294676e-06
1.4908508e-06
1.2964493e-06
1.114573e-06
1.0233514e-06
1.0240157e-06
1.0199147e-06
8.347793e-07
6.9354513e-07
6.4826984e-07
6.5379676e-07
6.4591704e-07
6.7139309e-07
7.2844871e-07
8.057013e-07
8.1847188e-07
8.9671416e-07
1.110098e-06
1.4359149e-06
1.5116889e-06
1.37354e-06
1.3753052e-06
1.4656659e-06
1.5420196e-06
1.4911305e-06
1.5097597e-06
1.5940508e-06
1.7345779e-06
1.8451153e-06
1.7654475e-06
1.7664879e-06
1.8464683e-06
1.9741584e-06
2.1742827e-06
2.2467592e-06
1.9768946e-06
1.862703e-06
1.8287845e-06
1.8311221e-06
1.8737444e-06
1.9398897e-06
2.0354864e-06
2.0997251e-06
2.0857759e-06
2.1168275e-06
2.17523e-06
2.2506668e-06
2.3454242e-06
2.4426956e-06
2.5346165e-06
2.4927738e-06
2.3588961e-06
2.335288e-06
2.3536772e-06
2.3982761e-06
2.4586307e-06
2.5332328e-06
2.6182788e-06
2.7168684e-06
2.8254028e-06
2.9535875e-06
3.0894773e-06
3.0919414e-06
3.0894421e-06
3.1143397e-06
3.1642416e-06
3.2376855e-06
3.337613e-06
3.4569014e-06
3.6280797e-06
3.7564769e-06
3.6513578e-06
3.5124002e-06
3.4026643e-06
3.321403e-06
3.2678761e-06
3.2374075e-06
3.2304037e-06
3.2677248e-06
3.1587916e-06
3.0325822e-06
2.9237129e-06
2.8330347e-06
2.759248e-06
2.7013116e-06
2.6606208e-06
2.6419531e-06
2.656265e-06
2.7136745e-06
2.8585788e-06
3.04262e-06
2.8924373e-06
2.6728332e-06
2.4891804e-06
2.3463665e-06
2.2427803e-06
2.1809255e-06
2.1623633e-06
2.2477201e-06
2.1682884e-06
2.0322649e-06
1.926565e-06
1.8663185e-06
1.8551307e-06
1.9044742e-06
2.0605833e-06
2.4026982e-06
2.2697693e-06
2.0344832e-06
1.881131e-06
1.8080171e-06
1.8466749e-06