/*--------------------------------*- C++ -*----------------------------------*\
| =========                 |                                                 |
| \\      /  F ield         | OpenFOAM: The Open Source CFD Toolbox           |
|  \\    /   O peration     | Version:  v2006                                 |
|   \\  /    A nd           | Website:  www.openfoam.com                      |
|    \\/     M anipulation  |                                                 |
\*---------------------------------------------------------------------------*/
FoamFile
{
    version     2.0;
    format      ascii;
    class       volVectorField;
    location    "4000";
    object      C;
}
// * * * * * * * * * * * * * * * * * * * * * * * * * * * * * * * * * * * * * //

dimensions      [0 1 0 0 0 0 0];


internalField   nonuniform List<vector> 
103740
(
(0.024236015 0.031066562 0.5)
(0.022577413 0.030590628 0.5)
(0.021004775 0.030139363 0.5)
(0.019538296 0.029649038 0.5)
(0.018226807 0.028994733 0.5)
(0.017033679 0.028245258 0.5)
(0.015895023 0.027530003 0.5)
(0.014806615 0.026846316 0.5)
(0.01380021 0.026143026 0.5)
(0.012876742 0.025415523 0.5)
(0.011997265 0.024713616 0.5)
(0.011154422 0.024040953 0.5)
(0.010345464 0.023395338 0.5)
(0.0096099698 0.022729748 0.5)
(0.0089511722 0.022038407 0.5)
(0.008323808 0.021366934 0.5)
(0.0077196162 0.020720271 0.5)
(0.0071369207 0.020096625 0.5)
(0.0065756223 0.0194933 0.5)
(0.0061082965 0.018853645 0.5)
(0.0057295631 0.018179041 0.5)
(0.0053615407 0.017523534 0.5)
(0.0050035641 0.016885937 0.5)
(0.004655016 0.016265151 0.5)
(0.0043153227 0.015660152 0.5)
(0.00398395 0.015069988 0.5)
(0.0036641071 0.014491884 0.5)
(0.0033765454 0.013915064 0.5)
(0.0031170569 0.013342185 0.5)
(0.0028639177 0.012783342 0.5)
(0.00261669 0.012237563 0.5)
(0.0023749668 0.011703949 0.5)
(0.0021383677 0.011181656 0.5)
(0.0019065372 0.010669895 0.5)
(0.0016805429 0.010167462 0.5)
(0.0015163202 0.0096545744 0.5)
(0.001410921 0.0091314864 0.5)
(0.0013069026 0.0086152549 0.5)
(0.0012041849 0.0081054725 0.5)
(0.0011026915 0.0076017485 0.5)
(0.001002349 0.0071037085 0.5)
(0.0009030873 0.0066109925 0.5)
(0.00080483895 0.006123254 0.5)
(0.00070753912 0.0056401593 0.5)
(0.00061112529 0.0051613861 0.5)
(0.00051553707 0.0046866227 0.5)
(0.0004231459 0.0042151889 0.5)
(0.00035509245 0.0037439528 0.5)
(0.00030876609 0.0032739814 0.5)
(0.00026285808 0.0028080063 0.5)
(0.00021731151 0.002345431 0.5)
(0.00017207091 0.0018856759 0.5)
(0.00012708193 0.0014281753 0.5)
(8.2291008e-05 0.00097237501 0.5)
(3.7645076e-05 0.00051772881 0.5)
(9.51284e-06 6.3600866e-05 0.5)
(2.7132794e-05 -0.00039045247 0.5)
(7.4056192e-05 -0.00084470258 0.5)
(0.0001211257 -0.0013000603 0.5)
(0.00016840302 -0.0017571282 0.5)
(0.00021595049 -0.0022165181 0.5)
(0.00026383147 -0.0026788545 0.5)
(0.0003121107 -0.003144778 0.5)
(0.00036188358 -0.0036148003 0.5)
(0.00043513341 -0.0040858668 0.5)
(0.0005309916 -0.004557305 0.5)
(0.00062764155 -0.0050325353 0.5)
(0.00072514387 -0.0055118667 0.5)
(0.00082356117 -0.0059956186 0.5)
(0.0009229583 -0.0064841217 0.5)
(0.0010234026 -0.0069777186 0.5)
(0.001124964 -0.007476765 0.5)
(0.0012277156 -0.0079816308 0.5)
(0.0013317334 -0.0084927015 0.5)
(0.0014370973 -0.0090103788 0.5)
(0.0015569151 -0.0095311117 0.5)
(0.0017336588 -0.01004267 0.5)
(0.0019556331 -0.010549653 0.5)
(0.0021818628 -0.011066357 0.5)
(0.0024126574 -0.011593494 0.5)
(0.0026483469 -0.012131822 0.5)
(0.0028892838 -0.012682148 0.5)
(0.0031358453 -0.013245338 0.5)
(0.0033884358 -0.013822318 0.5)
(0.0036748644 -0.014400092 0.5)
(0.0039996548 -0.014976121 0.5)
(0.0043362523 -0.015564377 0.5)
(0.0046814454 -0.016167671 0.5)
(0.0050357946 -0.016786984 0.5)
(0.0053999024 -0.017423369 0.5)
(0.0057744179 -0.018077962 0.5)
(0.0061691979 -0.018745285 0.5)
(0.0066531264 -0.019377212 0.5)
(0.0072209839 -0.019980286 0.5)
(0.0078091914 -0.020604981 0.5)
(0.0084193179 -0.021252964 0.5)
(0.0090530848 -0.021926063 0.5)
(0.0097275874 -0.022609601 0.5)
(0.010482073 -0.023263621 0.5)
(0.011304842 -0.023903708 0.5)
(0.012162654 -0.024571063 0.5)
(0.013058395 -0.025267931 0.5)
(0.0140102 -0.025974549 0.5)
(0.015053477 -0.026643476 0.5)
(0.016177488 -0.027295127 0.5)
(0.017355019 -0.02797781 0.5)
(0.018590701 -0.028694209 0.5)
(0.019904623 -0.029415885 0.5)
(0.021299401 -0.030141719 0.5)
(0.022762602 -0.030902495 0.5)
(0.024299783 -0.031701739 0.5)
(0.024231739 0.031093266 0.5)
(0.02257301 0.030617315 0.5)
(0.021000234 0.030166029 0.5)
(0.019533608 0.029675682 0.5)
(0.01822196 0.029021353 0.5)
(0.017028663 0.028271852 0.5)
(0.015889826 0.027556568 0.5)
(0.014801224 0.026872847 0.5)
(0.013794613 0.026169519 0.5)
(0.012870925 0.025441975 0.5)
(0.011991214 0.024740021 0.5)
(0.011148124 0.024067304 0.5)
(0.010338903 0.02342163 0.5)
(0.0096031293 0.022755974 0.5)
(0.0089440362 0.02206456 0.5)
(0.0083163595 0.021393005 0.5)
(0.0077118376 0.020746251 0.5)
(0.0071287941 0.020122503 0.5)
(0.0065671287 0.019519065 0.5)
(0.0060994162 0.018879284 0.5)
(0.0057202759 0.018204542 0.5)
(0.0053518265 0.017548881 0.5)
(0.0049934025 0.016911114 0.5)
(0.0046443864 0.016290139 0.5)
(0.0043042043 0.015684932 0.5)
(0.003972322 0.015094538 0.5)
(0.0036519487 0.014516181 0.5)
(0.003363836 0.013939083 0.5)
(0.0031037766 0.013365899 0.5)
(0.0028500474 0.01280672 0.5)
(0.0026022115 0.012260575 0.5)
(0.0023598631 0.011726561 0.5)
(0.0021226233 0.011203831 0.5)
(0.0018901384 0.010691596 0.5)
(0.001663478 0.010188647 0.5)
(0.001498579 0.0096752034 0.5)
(0.0013924971 0.0091515138 0.5)
(0.0012877927 0.0086346346 0.5)
(0.0011843892 0.0081241566 0.5)
(0.0010822137 0.007619688 0.5)
(0.00098119693 0.0071208534 0.5)
(0.0008812731 0.006627292 0.5)
(0.00078237929 0.0061386574 0.5)
(0.00068445537 0.0056546161 0.5)
(0.00058744366 0.0051748464 0.5)
(0.00049128868 0.0046990382 0.5)
(0.00039836667 0.004226513 0.5)
(0.00032982275 0.0037541418 0.5)
(0.00028305135 0.003282994 0.5)
(0.00023674794 0.0028158054 0.5)
(0.00019085957 0.0023519834 0.5)
(0.00014533429 0.001890953 0.5)
(0.00010012071 0.001432154 0.5)
(5.5167691e-05 0.00097503736 0.5)
(1.0423903e-05 0.00051906276 0.5)
(-1.7740954e-05 6.3600355e-05 0.5)
(-8.8296755e-08 -0.00039178745 0.5)
(4.6932941e-05 -0.00084736594 0.5)
(9.4164533e-05 -0.00130404 0.5)
(0.00014166643 -0.0017624064 0.5)
(0.00018949858 -0.0022230715 0.5)
(0.00023772133 -0.0026866546 0.5)
(0.00028639594 -0.0031537917 0.5)
(0.00033661385 -0.0036249902 0.5)
(0.00041035412 -0.004097192 0.5)
(0.00050674308 -0.0045697216 0.5)
(0.0006039598 -0.0050459966 0.5)
(0.00070205998 -0.0055263244 0.5)
(0.00080110136 -0.006011023 0.5)
(0.00090114395 -0.0065004223 0.5)
(0.0010022503 -0.0069948644 0.5)
(0.001104486 -0.0074947054 0.5)
(0.0012079197 -0.0080003159 0.5)
(0.0013126234 -0.0085120821 0.5)
(0.0014186732 -0.0090304072 0.5)
(0.0015391737 -0.0095517415 0.5)
(0.0017165935 -0.010063857 0.5)
(0.0019392339 -0.010571354 0.5)
(0.002166118 -0.011088533 0.5)
(0.0023975533 -0.011616107 0.5)
(0.0026338681 -0.012154835 0.5)
(0.0028754133 -0.012705527 0.5)
(0.0031225649 -0.013269052 0.5)
(0.0033757263 -0.013846338 0.5)
(0.0036627059 -0.01442439 0.5)
(0.0039880266 -0.015000672 0.5)
(0.0043251337 -0.015589158 0.5)
(0.0046708156 -0.01619266 0.5)
(0.0050256328 -0.016812161 0.5)
(0.0053901879 -0.017448717 0.5)
(0.0057651303 -0.018103464 0.5)
(0.0061603171 -0.018770925 0.5)
(0.0066446323 -0.019402977 0.5)
(0.0072128566 -0.020006164 0.5)
(0.0078014122 -0.020630961 0.5)
(0.0084118686 -0.021279036 0.5)
(0.0090459479 -0.021952217 0.5)
(0.0097207461 -0.022635828 0.5)
(0.010475511 -0.023289914 0.5)
(0.011298543 -0.023930061 0.5)
(0.012156602 -0.024597468 0.5)
(0.013052577 -0.025294383 0.5)
(0.014004601 -0.026001044 0.5)
(0.015048084 -0.026670009 0.5)
(0.016172288 -0.027321694 0.5)
(0.01735 -0.028004406 0.5)
(0.018585852 -0.028720831 0.5)
(0.019899933 -0.02944253 0.5)
(0.021294859 -0.030168385 0.5)
(0.022758198 -0.030929179 0.5)
(0.024295507 -0.031728438 0.5)
(0.02422716 0.031121866 0.5)
(0.022568294 0.030645896 0.5)
(0.020995372 0.030194588 0.5)
(0.019528588 0.029704217 0.5)
(0.01821677 0.029049862 0.5)
(0.01702329 0.028300334 0.5)
(0.015884259 0.027585018 0.5)
(0.01479545 0.026901261 0.5)
(0.013788618 0.026197893 0.5)
(0.012864694 0.025470304 0.5)
(0.011984734 0.0247683 0.5)
(0.011141378 0.024095526 0.5)
(0.010331876 0.023449788 0.5)
(0.0095958033 0.022784062 0.5)
(0.0089363937 0.022092569 0.5)
(0.0083083822 0.021420926 0.5)
(0.0077035069 0.020774074 0.5)
(0.0071200905 0.020150217 0.5)
(0.0065580323 0.019546658 0.5)
(0.0060899055 0.018906744 0.5)
(0.0057103294 0.018231853 0.5)
(0.0053414227 0.017576027 0.5)
(0.0049825196 0.016938078 0.5)
(0.0046330022 0.016316901 0.5)
(0.0042922965 0.015711471 0.5)
(0.0039598684 0.015120831 0.5)
(0.0036389272 0.014542203 0.5)
(0.0033502244 0.013964807 0.5)
(0.0030895536 0.013391296 0.5)
(0.0028351924 0.012831758 0.5)
(0.0025867051 0.012285221 0.5)
(0.0023436872 0.011750778 0.5)
(0.0021057612 0.011227581 0.5)
(0.0018725754 0.010714837 0.5)
(0.0016452017 0.010211337 0.5)
(0.0014795783 0.0096972969 0.5)
(0.0013727653 0.009172963 0.5)
(0.0012673263 0.00865539 0.5)
(0.0011631882 0.0081441671 0.5)
(0.0010602821 0.0076389011 0.5)
(0.00095854325 0.0071392153 0.5)
(0.00085791028 0.0066447487 0.5)
(0.00075832518 0.0061551544 0.5)
(0.00065973287 0.0056700991 0.5)
(0.00056208085 0.0051892623 0.5)
(0.00046531886 0.0047123351 0.5)
(0.00037182834 0.0042386411 0.5)
(0.00030275912 0.003765054 0.5)
(0.00025551108 0.0032926465 0.5)
(0.0002087842 0.0028241581 0.5)
(0.00016252978 0.0023590008 0.5)
(0.00011669959 0.0018966048 0.5)
(7.124548e-05 0.0014364151 0.5)
(2.6118847e-05 0.0009778887 0.5)
(-1.8729743e-05 0.00052049142 0.5)
(-4.6929537e-05 6.3599809e-05 0.5)
(-2.9241856e-05 -0.0003932172 0.5)
(1.7884168e-05 -0.00085021839 0.5)
(6.5289353e-05 -0.0013083022 0.5)
(0.00011303177 -0.0017680593 0.5)
(0.0001611688 -0.0022300901 0.5)
(0.0002097576 -0.0026950084 0.5)
(0.00025885565 -0.0031634452 0.5)
(0.0003095502 -0.0036359036 0.5)
(0.00038381571 -0.0041093212 0.5)
(0.00048077314 -0.0045830196 0.5)
(0.00057859685 -0.0050604136 0.5)
(0.00067733734 -0.0055418086 0.5)
(0.0007770471 -0.0060275211 0.5)
(0.00087778097 -0.00651788 0.5)
(0.00097959649 -0.0070132275 0.5)
(0.0010825543 -0.0075139195 0.5)
(0.0011867184 -0.0080203275 0.5)
(0.0012921568 -0.0085328385 0.5)
(0.0013989412 -0.0090518574 0.5)
(0.0015201729 -0.0095738358 0.5)
(0.0016983167 -0.010086547 0.5)
(0.0019216704 -0.010594596 0.5)
(0.0021492555 -0.011112283 0.5)
(0.002381377 -0.011640324 0.5)
(0.0026183614 -0.012179481 0.5)
(0.0028605581 -0.012730566 0.5)
(0.0031083417 -0.01329445 0.5)
(0.0033621146 -0.013872063 0.5)
(0.0036496843 -0.014450412 0.5)
(0.0039755729 -0.015026965 0.5)
(0.0043132258 -0.015615698 0.5)
(0.0046594312 -0.016219423 0.5)
(0.0050147496 -0.016839126 0.5)
(0.0053797838 -0.017475864 0.5)
(0.0057551835 -0.018130776 0.5)
(0.006150806 -0.018798386 0.5)
(0.0066355352 -0.019430571 0.5)
(0.0072041522 -0.02003388 0.5)
(0.0077930806 -0.020658786 0.5)
(0.0084038905 -0.021306958 0.5)
(0.0090383045 -0.021980227 0.5)
(0.0097134191 -0.022663917 0.5)
(0.010468482 -0.023318074 0.5)
(0.011291796 -0.023958284 0.5)
(0.012150121 -0.024625748 0.5)
(0.013046345 -0.025322714 0.5)
(0.013998604 -0.026029419 0.5)
(0.015042308 -0.026698425 0.5)
(0.016166719 -0.027350146 0.5)
(0.017344625 -0.02803289 0.5)
(0.018580659 -0.028749344 0.5)
(0.019894909 -0.029471068 0.5)
(0.021289993 -0.030196944 0.5)
(0.02275348 -0.030957757 0.5)
(0.024290927 -0.031757033 0.5)
(0.024222256 0.031152498 0.5)
(0.022563244 0.030676507 0.5)
(0.020990164 0.030225176 0.5)
(0.01952321 0.02973478 0.5)
(0.018211211 0.029080397 0.5)
(0.017017536 0.028330839 0.5)
(0.015878297 0.027615489 0.5)
(0.014789267 0.026931694 0.5)
(0.013782198 0.026228283 0.5)
(0.012858022 0.025500646 0.5)
(0.011977793 0.024798587 0.5)
(0.011134153 0.024125753 0.5)
(0.010324349 0.023479947 0.5)
(0.0095879569 0.022814145 0.5)
(0.0089282082 0.022122568 0.5)
(0.0082998382 0.021450831 0.5)
(0.0076945844 0.020803875 0.5)
(0.0071107686 0.020179901 0.5)
(0.0065482896 0.019576212 0.5)
(0.0060797192 0.018936154 0.5)
(0.0056996764 0.018261104 0.5)
(0.0053302799 0.017605102 0.5)
(0.0049708636 0.016966957 0.5)
(0.0046208093 0.016345564 0.5)
(0.004279543 0.015739895 0.5)
(0.0039465303 0.015148991 0.5)
(0.0036249807 0.014570073 0.5)
(0.0033356459 0.013992359 0.5)
(0.0030743202 0.013418497 0.5)
(0.0028192823 0.012858575 0.5)
(0.0025700973 0.012311617 0.5)
(0.0023263622 0.011776715 0.5)
(0.0020877013 0.011253017 0.5)
(0.0018537648 0.010739729 0.5)
(0.0016256272 0.010235638 0.5)
(0.0014592278 0.0097209599 0.5)
(0.0013516318 0.0091959359 0.5)
(0.001245406 0.0086776198 0.5)
(0.0011404811 0.008165599 0.5)
(0.0010367926 0.0076594789 0.5)
(0.00093428035 0.0071588817 0.5)
(0.00083288787 0.0066634454 0.5)
(0.00073256237 0.0061728232 0.5)
(0.00063325419 0.005686682 0.5)
(0.00053491636 0.0052047023 0.5)
(0.00043750425 0.0047265766 0.5)
(0.00034340482 0.0042516307 0.5)
(0.00027377299 0.0037767414 0.5)
(0.00022601445 0.0033029846 0.5)
(0.00017883403 0.0028331041 0.5)
(0.00013218753 0.0023665168 0.5)
(8.6030789e-05 0.0019026581 0.5)
(4.0319051e-05 0.001440979 0.5)
(-4.9935251e-06 0.0009809426 0.5)
(-4.9954363e-05 0.00052202157 0.5)
(-7.8191578e-05 6.3599224e-05 0.5)
(-6.0466383e-05 -0.00039474852 0.5)
(-1.3228129e-05 -0.00085327346 0.5)
(3.4362982e-05 -0.0013128672 0.5)
(8.236301e-05 -0.0017741138 0.5)
(0.00013082658 -0.0022376072 0.5)
(0.00017980743 -0.0027039556 0.5)
(0.00022935901 -0.0031737845 0.5)
(0.00028056404 -0.0036475922 0.5)
(0.00035539212 -0.004122312 0.5)
(0.00045295839 -0.0045972622 0.5)
(0.00055143222 -0.0050758548 0.5)
(0.00065085851 -0.0055583927 0.5)
(0.00075128413 -0.006045191 0.5)
(0.00085275838 -0.0065365779 0.5)
(0.0009553334 -0.007032895 0.5)
(0.0010590646 -0.0075344985 0.5)
(0.0011640112 -0.0080417605 0.5)
(0.0012702363 -0.0085550695 0.5)
(0.0013778075 -0.0090748314 0.5)
(0.0014998223 -0.0095974996 0.5)
(0.0016787416 -0.01011085 0.5)
(0.0019028594 -0.010619489 0.5)
(0.0021311951 -0.011137721 0.5)
(0.0023640517 -0.011666262 0.5)
(0.0026017533 -0.012205878 0.5)
(0.0028446477 -0.012757384 0.5)
(0.0030931081 -0.013321652 0.5)
(0.0033475359 -0.013899615 0.5)
(0.0036357377 -0.014478283 0.5)
(0.0039622347 -0.015055127 0.5)
(0.0043004721 -0.015644123 0.5)
(0.0046472381 -0.016248087 0.5)
(0.0050030933 -0.016868006 0.5)
(0.0053686406 -0.01750494 0.5)
(0.00574453 -0.018160028 0.5)
(0.0061406192 -0.018827797 0.5)
(0.0066257918 -0.019460126 0.5)
(0.0071948296 -0.020063565 0.5)
(0.0077841573 -0.020688587 0.5)
(0.0083953457 -0.021336864 0.5)
(0.0090301181 -0.022010227 0.5)
(0.0097055716 -0.022694001 0.5)
(0.010460955 -0.023348234 0.5)
(0.011284569 -0.023988512 0.5)
(0.012143179 -0.024656037 0.5)
(0.013039671 -0.025353057 0.5)
(0.013992182 -0.02605981 0.5)
(0.015036121 -0.026728859 0.5)
(0.016160755 -0.027380619 0.5)
(0.017338868 -0.028063398 0.5)
(0.018575096 -0.028779882 0.5)
(0.019889529 -0.029501632 0.5)
(0.021284783 -0.030227532 0.5)
(0.022748428 -0.030988366 0.5)
(0.024286023 -0.031787659 0.5)
(0.024217004 0.031185305 0.5)
(0.022557834 0.030709293 0.5)
(0.020984586 0.030257937 0.5)
(0.019517452 0.029767513 0.5)
(0.018205257 0.029113101 0.5)
(0.017011374 0.02836351 0.5)
(0.015871911 0.027648124 0.5)
(0.014782643 0.026964288 0.5)
(0.013775321 0.026260831 0.5)
(0.012850875 0.025533142 0.5)
(0.01197036 0.024831026 0.5)
(0.011126415 0.024158127 0.5)
(0.010316288 0.023512248 0.5)
(0.0095795532 0.022846365 0.5)
(0.0089194414 0.022154698 0.5)
(0.0082906875 0.02148286 0.5)
(0.0076850282 0.020835791 0.5)
(0.0071007847 0.020211692 0.5)
(0.006537855 0.019607865 0.5)
(0.0060688095 0.018967653 0.5)
(0.0056882667 0.018292433 0.5)
(0.0053183457 0.017636241 0.5)
(0.0049583798 0.016997887 0.5)
(0.0046077505 0.016376263 0.5)
(0.0042658836 0.015770338 0.5)
(0.0039322448 0.015179152 0.5)
(0.0036100437 0.014599923 0.5)
(0.003320032 0.014021867 0.5)
(0.0030580049 0.013447629 0.5)
(0.0028022421 0.012887296 0.5)
(0.0025523099 0.012339888 0.5)
(0.0023078067 0.011804494 0.5)
(0.0020683587 0.01128026 0.5)
(0.0018336183 0.010766389 0.5)
(0.0016046623 0.010261665 0.5)
(0.001437432 0.0097463034 0.5)
(0.0013289974 0.0092205403 0.5)
(0.0012219288 0.0087014284 0.5)
(0.0011161613 0.0081885531 0.5)
(0.0010116349 0.0076815183 0.5)
(0.00090829421 0.0071799448 0.5)
(0.00080608828 0.0066834701 0.5)
(0.0007049698 0.0061917469 0.5)
(0.0006048949 0.0057044427 0.5)
(0.00050582256 0.0052212388 0.5)
(0.00040771414 0.0047418295 0.5)
(0.00031296256 0.0042655429 0.5)
(0.00024272816 0.0037892589 0.5)
(0.00019442286 0.003314057 0.5)
(0.00014675667 0.0028426856 0.5)
(9.9690267e-05 0.0023745666 0.5)
(5.3183771e-05 0.0019091413 0.5)
(7.1961089e-06 0.0014458669 0.5)
(-3.8315618e-05 0.0009842134 0.5)
(-8.3396676e-05 0.00052366039 0.5)
(-0.00011167397 6.3598597e-05 0.5)
(-9.3908597e-05 -0.00039638859 0.5)
(-4.6550142e-05 -0.00085654552 0.5)
(1.2401007e-06 -0.0013177565 0.5)
(4.9516035e-05 -0.0017805982 0.5)
(9.8329338e-05 -0.0022456583 0.5)
(0.00014773008 -0.0027135383 0.5)
(0.0001977674 -0.0031848582 0.5)
(0.00024951918 -0.0036601109 0.5)
(0.00032494977 -0.0041362254 0.5)
(0.00042316814 -0.0046125164 0.5)
(0.00052233826 -0.0050923926 0.5)
(0.00062249905 -0.0055761546 0.5)
(0.00072369138 -0.006064116 0.5)
(0.0008259586 -0.0065566038 0.5)
(0.00092934707 -0.0070539593 0.5)
(0.0010339066 -0.0075565391 0.5)
(0.0011396912 -0.0080647159 0.5)
(0.0012467589 -0.0085788793 0.5)
(0.0013551728 -0.009099437 0.5)
(0.0014780263 -0.009622844 0.5)
(0.0016577762 -0.010136878 0.5)
(0.0018827123 -0.010646151 0.5)
(0.0021118521 -0.011164965 0.5)
(0.0023454958 -0.011694043 0.5)
(0.0025839656 -0.01223415 0.5)
(0.0028276072 -0.012786106 0.5)
(0.0030767926 -0.013350786 0.5)
(0.0033319219 -0.013929124 0.5)
(0.0036208006 -0.014508134 0.5)
(0.003947949 -0.015085288 0.5)
(0.0042868125 -0.015674566 0.5)
(0.004634179 -0.016278787 0.5)
(0.0049906092 -0.016898937 0.5)
(0.0053567061 -0.01753608 0.5)
(0.0057331199 -0.018191358 0.5)
(0.0061297089 -0.018859297 0.5)
(0.0066153564 -0.01949178 0.5)
(0.0071848449 -0.020095358 0.5)
(0.0077746002 -0.020720505 0.5)
(0.008386194 -0.021368894 0.5)
(0.0090213503 -0.022042358 0.5)
(0.0096971667 -0.022726222 0.5)
(0.010452892 -0.023380536 0.5)
(0.01127683 -0.024020887 0.5)
(0.012135744 -0.024688477 0.5)
(0.013032523 -0.025385554 0.5)
(0.013985303 -0.02609236 0.5)
(0.015029496 -0.026761455 0.5)
(0.016154366 -0.027413257 0.5)
(0.017332703 -0.028096072 0.5)
(0.018569139 -0.028812588 0.5)
(0.019883766 -0.029534367 0.5)
(0.021279202 -0.030260293 0.5)
(0.022743017 -0.031021148 0.5)
(0.02428077 -0.03182046 0.5)
(0.024211378 0.031220442 0.5)
(0.022552041 0.030744406 0.5)
(0.020978612 0.030293023 0.5)
(0.019511284 0.02980257 0.5)
(0.018198881 0.029148127 0.5)
(0.017004774 0.028398502 0.5)
(0.015865072 0.027683077 0.5)
(0.01477555 0.026999196 0.5)
(0.013767956 0.02629569 0.5)
(0.012843221 0.025567946 0.5)
(0.011962399 0.024865768 0.5)
(0.011118128 0.024192799 0.5)
(0.010307655 0.023546842 0.5)
(0.0095705528 0.022880872 0.5)
(0.008910052 0.022189109 0.5)
(0.0082808869 0.021517164 0.5)
(0.0076747934 0.020869974 0.5)
(0.0070900918 0.020245742 0.5)
(0.0065266795 0.019641765 0.5)
(0.0060571251 0.019001389 0.5)
(0.0056760469 0.018325986 0.5)
(0.005305564 0.017669592 0.5)
(0.0049450094 0.017031014 0.5)
(0.0045937643 0.016409141 0.5)
(0.0042512542 0.015802943 0.5)
(0.0039169449 0.015211454 0.5)
(0.003594046 0.014631892 0.5)
(0.0033033093 0.01405347 0.5)
(0.0030405311 0.013478831 0.5)
(0.0027839919 0.012918057 0.5)
(0.0025332594 0.012370166 0.5)
(0.0022879336 0.011834245 0.5)
(0.0020476426 0.011309437 0.5)
(0.0018120411 0.010794942 0.5)
(0.0015822087 0.010289541 0.5)
(0.0014140884 0.0097734467 0.5)
(0.0013047557 0.009246892 0.5)
(0.0011967845 0.0087269278 0.5)
(0.0010901145 0.0082131373 0.5)
(0.00098469056 0.0077051227 0.5)
(0.00088046273 0.0072025036 0.5)
(0.00077738557 0.0067049167 0.5)
(0.0006754178 0.0062120144 0.5)
(0.00057452172 0.0057234646 0.5)
(0.00047466271 0.0052389497 0.5)
(0.00037580855 0.0047581656 0.5)
(0.00028035849 0.0042804431 0.5)
(0.00020947874 0.0038026653 0.5)
(0.00016058785 0.0033259157 0.5)
(0.0001124014 0.0028529474 0.5)
(6.488526e-05 0.0023831881 0.5)
(1.8004172e-05 0.0019160849 0.5)
(-2.8279011e-05 0.001451102 0.5)
(-7.4004031e-05 0.00098771646 0.5)
(-0.00011921385 0.00052541559 0.5)
(-0.00014753407 6.3597925e-05 0.5)
(-0.00012972566 -0.00039814514 0.5)
(-8.2238469e-05 -0.00086004993 0.5)
(-3.4234953e-05 -0.0013229929 0.5)
(1.4336481e-05 -0.0017875432 0.5)
(6.3524355e-05 -0.0022542811 0.5)
(0.00011337481 -0.0027238016 0.5)
(0.00016393237 -0.0031967182 0.5)
(0.00021626972 -0.0036735187 0.5)
(0.00029234562 -0.0041511269 0.5)
(0.00039126239 -0.0046288538 0.5)
(0.00049117825 -0.0051101048 0.5)
(0.0005921257 -0.0055951779 0.5)
(0.00069413919 -0.0060843849 0.5)
(0.0007972557 -0.0065780517 0.5)
(0.00090151538 -0.0070765195 0.5)
(0.0010069621 -0.0075801448 0.5)
(0.0011136441 -0.0080893013 0.5)
(0.0012216143 -0.0086043799 0.5)
(0.0013309308 -0.00912579 0.5)
(0.0014546826 -0.0096499883 0.5)
(0.0016353221 -0.010164755 0.5)
(0.0018611346 -0.010674705 0.5)
(0.0020911355 -0.011194144 0.5)
(0.0023256223 -0.011723795 0.5)
(0.0025649147 -0.01226443 0.5)
(0.0028093567 -0.012816868 0.5)
(0.0030593185 -0.013381988 0.5)
(0.003315199 -0.013960729 0.5)
(0.0036048028 -0.014540104 0.5)
(0.003932649 -0.015117592 0.5)
(0.0042721829 -0.015707172 0.5)
(0.0046201926 -0.016311666 0.5)
(0.0049772385 -0.016932065 0.5)
(0.005343924 -0.017569432 0.5)
(0.0057208996 -0.018224912 0.5)
(0.0061180238 -0.018893034 0.5)
(0.0066041801 -0.019525681 0.5)
(0.0071741511 -0.020129408 0.5)
(0.0077643645 -0.02075469 0.5)
(0.0083763924 -0.021403199 0.5)
(0.0090119599 -0.02207677 0.5)
(0.0096881651 -0.022760731 0.5)
(0.010444257 -0.023415132 0.5)
(0.011268541 -0.024055561 0.5)
(0.012127781 -0.024723221 0.5)
(0.013024867 -0.02542036 0.5)
(0.013977936 -0.026127221 0.5)
(0.0150224 -0.026796366 0.5)
(0.016147524 -0.027448212 0.5)
(0.017326099 -0.028131066 0.5)
(0.018562759 -0.028847617 0.5)
(0.019877594 -0.029569427 0.5)
(0.021273225 -0.030295379 0.5)
(0.022737222 -0.031056258 0.5)
(0.024275144 -0.03185559 0.5)
(0.024205354 0.031258074 0.5)
(0.022545836 0.030782012 0.5)
(0.020972214 0.030330601 0.5)
(0.019504678 0.029840116 0.5)
(0.018192051 0.02918564 0.5)
(0.016997705 0.028435978 0.5)
(0.015857748 0.027720511 0.5)
(0.014767953 0.027036583 0.5)
(0.013760068 0.026333024 0.5)
(0.012835024 0.025605221 0.5)
(0.011953872 0.024902976 0.5)
(0.011109252 0.024229933 0.5)
(0.010298408 0.023583893 0.5)
(0.0095609133 0.02291783 0.5)
(0.008899996 0.022225963 0.5)
(0.0082703905 0.021553902 0.5)
(0.0076638319 0.020906585 0.5)
(0.0070786397 0.020282208 0.5)
(0.0065147104 0.019678072 0.5)
(0.006044611 0.01903752 0.5)
(0.0056629594 0.018361921 0.5)
(0.0052918749 0.017705311 0.5)
(0.0049306898 0.017066493 0.5)
(0.0045787851 0.016444355 0.5)
(0.0042355862 0.015837862 0.5)
(0.0039005587 0.01524605 0.5)
(0.0035769124 0.014666131 0.5)
(0.0032853993 0.014087318 0.5)
(0.0030218166 0.013512248 0.5)
(0.0027644459 0.012951002 0.5)
(0.0025128563 0.012402595 0.5)
(0.0022666495 0.011866109 0.5)
(0.0020254556 0.011340687 0.5)
(0.0017889319 0.010825522 0.5)
(0.0015581609 0.010319396 0.5)
(0.0013890874 0.0098025171 0.5)
(0.0012787928 0.0092751147 0.5)
(0.0011698549 0.0087542376 0.5)
(0.0010622183 0.008239467 0.5)
(0.00095583317 0.0077304031 0.5)
(0.00085065516 0.0072266642 0.5)
(0.00074664492 0.0067278861 0.5)
(0.00064376754 0.006233721 0.5)
(0.000541992 0.0057438372 0.5)
(0.00044129045 0.005257918 0.5)
(0.00034163759 0.0047756615 0.5)
(0.00024543947 0.0042964011 0.5)
(0.00017386853 0.0038170236 0.5)
(0.00012435047 0.0033386163 0.5)
(7.5606821e-05 0.0028639379 0.5)
(2.7609015e-05 0.0023924217 0.5)
(-1.9673262e-05 0.0019235215 0.5)
(-6.627295e-05 0.0014567088 0.5)
(-0.00011222641 0.00099146826 0.5)
(-0.00015757413 0.00052729541 0.5)
(-0.00018594032 6.3597207e-05 0.5)
(-0.00016808583 -0.0004000264 0.5)
(-0.00012046075 -0.00086380317 0.5)
(-7.2228821e-05 -0.0013286011 0.5)
(-2.3340905e-05 -0.0017949813 0.5)
(2.6248137e-05 -0.0022635161 0.5)
(7.6580233e-05 -0.0027347935 0.5)
(0.00012769498 -0.0032094204 0.5)
(0.00018065948 -0.0036878784 0.5)
(0.00025742651 -0.0041670864 0.5)
(0.00035709127 -0.0046463513 0.5)
(0.00045780581 -0.0051290746 0.5)
(0.00055959579 -0.0056155519 0.5)
(0.00066248874 -0.0061060929 0.5)
(0.00076651483 -0.0066010226 0.5)
(0.00087170758 -0.0071006815 0.5)
(0.0009781045 -0.0076054266 0.5)
(0.0010857477 -0.0081156324 0.5)
(0.0011946844 -0.0086316911 0.5)
(0.0013049676 -0.009154014 0.5)
(0.0014296814 -0.0096790598 0.5)
(0.0016112736 -0.010194611 0.5)
(0.0018380248 -0.010705287 0.5)
(0.0020689479 -0.011225394 0.5)
(0.0023043377 -0.011755661 0.5)
(0.0025445112 -0.012296859 0.5)
(0.0027898104 -0.012849814 0.5)
(0.0030406038 -0.013415406 0.5)
(0.0032972889 -0.013994577 0.5)
(0.0035876691 -0.014574345 0.5)
(0.0039162626 -0.015152188 0.5)
(0.0042565147 -0.015742093 0.5)
(0.0046052131 -0.01634688 0.5)
(0.0049629185 -0.016967545 0.5)
(0.0053302344 -0.017605152 0.5)
(0.0057078117 -0.018260849 0.5)
(0.0061055091 -0.018929166 0.5)
(0.0065922102 -0.01956199 0.5)
(0.0071626981 -0.020165876 0.5)
(0.007753402 -0.020791301 0.5)
(0.0083658949 -0.021439939 0.5)
(0.0090019027 -0.022113626 0.5)
(0.0096785243 -0.02279769 0.5)
(0.010435009 -0.023452184 0.5)
(0.011259663 -0.024092696 0.5)
(0.012119252 -0.024760431 0.5)
(0.013016667 -0.025457637 0.5)
(0.013970046 -0.026164557 0.5)
(0.0150148 -0.026833755 0.5)
(0.016140197 -0.027485649 0.5)
(0.017319026 -0.028168545 0.5)
(0.018555925 -0.028885133 0.5)
(0.019870984 -0.029606976 0.5)
(0.021266824 -0.030332957 0.5)
(0.022731015 -0.031093861 0.5)
(0.024269118 -0.031893215 0.5)
(0.024198901 0.031298377 0.5)
(0.022539191 0.030822288 0.5)
(0.020965362 0.030370847 0.5)
(0.019497603 0.029880328 0.5)
(0.018184737 0.029225815 0.5)
(0.016990134 0.028476114 0.5)
(0.015849903 0.027760603 0.5)
(0.014759817 0.027076624 0.5)
(0.013751621 0.026373008 0.5)
(0.012826245 0.025645142 0.5)
(0.01194474 0.024942826 0.5)
(0.011099746 0.024269704 0.5)
(0.010288505 0.023623573 0.5)
(0.0095505896 0.022957411 0.5)
(0.0088892262 0.022265434 0.5)
(0.008259149 0.021593249 0.5)
(0.0076520923 0.020945794 0.5)
(0.0070663747 0.020321264 0.5)
(0.0065018918 0.019716957 0.5)
(0.0060312087 0.019076215 0.5)
(0.0056489429 0.018400408 0.5)
(0.005277214 0.017743565 0.5)
(0.0049153537 0.01710449 0.5)
(0.0045627427 0.016482067 0.5)
(0.0042188059 0.015875261 0.5)
(0.0038830093 0.015283102 0.5)
(0.0035585626 0.014702801 0.5)
(0.0032662179 0.014123568 0.5)
(0.0030017736 0.013548037 0.5)
(0.0027435124 0.012986285 0.5)
(0.0024910048 0.012437325 0.5)
(0.0022438544 0.011900235 0.5)
(0.0020016936 0.011374154 0.5)
(0.0017641822 0.010858273 0.5)
(0.001532406 0.01035137 0.5)
(0.0013623117 0.0098336512 0.5)
(0.0012509868 0.0093053409 0.5)
(0.0011410137 0.0087834861 0.5)
(0.0010323419 0.0082676657 0.5)
(0.00092492728 0.007757478 0.5)
(0.00081873163 0.0072525399 0.5)
(0.00071372207 0.006752486 0.5)
(0.00060987052 0.0062569685 0.5)
(0.00050715307 0.0057656559 0.5)
(0.00040554918 0.0052782329 0.5)
(0.00030504091 0.0047943995 0.5)
(0.00020804163 0.004313492 0.5)
(0.00013573043 0.0038324012 0.5)
(8.554068e-05 0.0033522186 0.5)
(3.6200271e-05 0.0028757086 0.5)
(-1.2313396e-05 0.0024023107 0.5)
(-6.0025345e-05 0.0019314861 0.5)
(-0.00010696401 0.0014627135 0.5)
(-0.00015316212 0.00099548638 0.5)
(-0.00019865753 0.00052930868 0.5)
(-0.00022707296 6.3596436e-05 0.5)
(-0.00020916911 -0.00040204121 0.5)
(-0.00016139637 -0.00086782284 0.5)
(-0.0001129198 -0.0013346074 0.5)
(-6.3692935e-05 -0.0018029473 0.5)
(-1.3674246e-05 -0.0022734068 0.5)
(3.7173688e-05 -0.0027465657 0.5)
(8.8885166e-05 -0.0032230242 0.5)
(0.00014252134 -0.0037032575 0.5)
(0.00022002856 -0.0041841789 0.5)
(0.00032049441 -0.0046650908 0.5)
(0.00042206435 -0.005149391 0.5)
(0.00052475666 -0.0056373721 0.5)
(0.0006285915 -0.0061293419 0.5)
(0.00073359175 -0.006625624 0.5)
(0.00083978381 -0.0071265586 0.5)
(0.00094719835 -0.0076325031 0.5)
(0.001055871 -0.0081438326 0.5)
(0.0011658429 -0.0086609411 0.5)
(0.0012771613 -0.0091842416 0.5)
(0.0014029055 -0.009710195 0.5)
(0.001585518 -0.010226587 0.5)
(0.0018132745 -0.010738039 0.5)
(0.0020451854 -0.011258863 0.5)
(0.0022815422 -0.011789788 0.5)
(0.0025226594 -0.012331591 0.5)
(0.0027688766 -0.012885099 0.5)
(0.0030205605 -0.013451196 0.5)
(0.0032781073 -0.014030828 0.5)
(0.0035693192 -0.014611015 0.5)
(0.003898713 -0.015189241 0.5)
(0.0042397342 -0.015779492 0.5)
(0.0045891703 -0.016384594 0.5)
(0.004947582 -0.017005543 0.5)
(0.0053155731 -0.017643408 0.5)
(0.0056937946 -0.018299336 0.5)
(0.0060921061 -0.018967863 0.5)
(0.0065793906 -0.019600876 0.5)
(0.007150432 -0.020204933 0.5)
(0.0077416613 -0.020830511 0.5)
(0.0083546523 -0.021479287 0.5)
(0.0089911316 -0.022153098 0.5)
(0.0096681991 -0.022837273 0.5)
(0.010425105 -0.023491866 0.5)
(0.011250155 -0.024132468 0.5)
(0.012110119 -0.024800283 0.5)
(0.013007886 -0.02549756 0.5)
(0.013961596 -0.026204543 0.5)
(0.015006661 -0.026873798 0.5)
(0.016132349 -0.027525743 0.5)
(0.017311452 -0.028208685 0.5)
(0.018548607 -0.028925313 0.5)
(0.019863905 -0.02964719 0.5)
(0.021259968 -0.030373202 0.5)
(0.022724367 -0.031134133 0.5)
(0.024262665 -0.03193351 0.5)
(0.024191991 0.031341541 0.5)
(0.022532074 0.030865424 0.5)
(0.020958023 0.030413949 0.5)
(0.019490026 0.029923394 0.5)
(0.018176904 0.029268843 0.5)
(0.016982026 0.0285191 0.5)
(0.015841502 0.02780354 0.5)
(0.014751103 0.027119507 0.5)
(0.013742573 0.026415831 0.5)
(0.012816842 0.025687897 0.5)
(0.01193496 0.024985505 0.5)
(0.011089565 0.024312297 0.5)
(0.0102779 0.023666071 0.5)
(0.009539533 0.022999802 0.5)
(0.0088776918 0.022307706 0.5)
(0.0082471095 0.021635389 0.5)
(0.0076395193 0.020987786 0.5)
(0.007053239 0.020363092 0.5)
(0.0064881631 0.019758602 0.5)
(0.0060168549 0.019117658 0.5)
(0.0056339314 0.018441627 0.5)
(0.0052615123 0.017784535 0.5)
(0.0048989289 0.017145184 0.5)
(0.0045455613 0.016522457 0.5)
(0.0042008344 0.015915314 0.5)
(0.003864214 0.015322784 0.5)
(0.0035389101 0.014742074 0.5)
(0.0032456749 0.014162391 0.5)
(0.0029803077 0.013586366 0.5)
(0.0027210928 0.013024073 0.5)