/*--------------------------------*- C++ -*----------------------------------*\
| =========                 |                                                 |
| \\      /  F ield         | OpenFOAM: The Open Source CFD Toolbox           |
|  \\    /   O peration     | Version:  v2006                                 |
|   \\  /    A nd           | Website:  www.openfoam.com                      |
|    \\/     M anipulation  |                                                 |
\*---------------------------------------------------------------------------*/
FoamFile
{
    version     2.0;
    format      ascii;
    class       volScalarField;
    location    "4000";
    object      Cp;
}
// * * * * * * * * * * * * * * * * * * * * * * * * * * * * * * * * * * * * * //

dimensions      [0 0 0 0 0 0 0];


internalField   nonuniform List<scalar> 
103740
(
0.11225741
0.06007847
0.046423254
-0.19358651
0.19369412
0.20650735
0.32767996
0.23316318
0.40046223
0.44157048
0.48461303
0.54659488
0.46913931
0.60383191
0.63670811
0.69327979
0.69590475
0.77213989
0.65970408
0.83443282
0.8364039
0.88869573
0.89849375
0.92483971
0.93479548
0.95307269
0.9557077
0.97937881
0.98344717
0.99426479
0.99735582
1.003538
1.0044646
1.00784
1.0054342
1.0050706
0.99823273
0.99568374
0.98799625
0.98241799
0.97401639
0.96547302
0.95577145
0.94377878
0.93227267
0.9142306
0.90031844
0.8622936
0.86388342
0.84147454
0.82522669
0.80361366
0.77927693
0.74975152
0.7129777
0.65045278
0.58269025
0.62246153
0.59038919
0.57807209
0.55156279
0.52995015
0.48657584
0.46579757
0.35681812
0.40106601
0.36419885
0.34393028
0.31446137
0.28132482
0.24183627
0.19726171
0.14041173
0.076075734
-0.020061028
-0.15053251
-0.39168697
-0.18045224
-0.23584458
-0.2407875
-0.27477279
-0.30698304
-0.38641204
-0.42429577
-0.67087901
-0.56328966
-0.60429283
-0.64544145
-0.71557116
-0.79115084
-0.96315694
-1.0937038
-1.7811437
-1.109834
-1.2456715
-1.2171876
-1.265753
-1.3914714
-1.6184693
-1.2813981
-1.338443
-1.3206779
-1.3935399
-1.5310828
-1.2213914
-1.261816
-1.1441501
-1.2454363
-1.0725568
-1.081422
-1.0197373
0.11214345
0.060145158
0.046787904
-0.19362307
0.19199232
0.20582133
0.32756015
0.23280967
0.39919706
0.44098184
0.48388489
0.5467113
0.46873281
0.60235969
0.63580758
0.69268867
0.69509622
0.77251909
0.65897055
0.83207061
0.83554203
0.88775787
0.89793463
0.9242845
0.93436017
0.95275453
0.95530385
0.97890058
0.98317852
0.99401734
0.99718636
1.0034027
1.0043725
1.0077903
1.0054315
1.0051943
0.99839951
0.99585658
0.98821567
0.98263507
0.97426691
0.96572356
0.95604616
0.94404707
0.9325708
0.91450248
0.90071635
0.86274153
0.86404141
0.84172406
0.82540162
0.80374568
0.7792861
0.74963152
0.7126309
0.6504658
0.58321648
0.62243498
0.59031044
0.57789315
0.55126905
0.52942778
0.48595197
0.46441951
0.35679282
0.40110796
0.36357315
0.34328789
0.31358216
0.28022038
0.24047119
0.1955154
0.13821796
0.073023631
-0.024479194
-0.15708096
-0.39127309
-0.17809816
-0.23676577
-0.24143875
-0.27589071
-0.30887669
-0.38846214
-0.42895853
-0.67290242
-0.5622608
-0.60551757
-0.64711473
-0.71776735
-0.79482712
-0.96768122
-1.1042005
-1.7806338
-1.1043999
-1.2467795
-1.2174566
-1.2674903
-1.3943966
-1.6174519
-1.2794915
-1.3387631
-1.3210923
-1.3946735
-1.5301719
-1.2202251
-1.2615311
-1.1440812
-1.2451738
-1.0720179
-1.0812701
-1.0196419
0.11205209
0.060178941
0.047079519
-0.19342404
0.19055986
0.20522667
0.32744384
0.23268406
0.39812254
0.44047074
0.48325437
0.54679272
0.46861526
0.60111066
0.63502494
0.69217494
0.69438839
0.77282185
0.6586732
0.83007669
0.83477454
0.8869429
0.89744263
0.92380209
0.93397764
0.9524777
0.95495778
0.97848549
0.98293863
0.99379956
0.99703433
1.0032814
1.0042874
1.007742
1.0054276
1.005241
0.99850065
0.99595801
0.98836257
0.98277912
0.97443694
0.96588864
0.95622701
0.94421686
0.93275401
0.9146499
0.90100861
0.86319129
0.86414271
0.84189762
0.82547815
0.80377767
0.77928576
0.74954347
0.71240135
0.65071378
0.58410087
0.62238479
0.5902656
0.57773819
0.55102217
0.52898298
0.48542533
0.46332455
0.35700223
0.40108867
0.3630278
0.3427306
0.31282542
0.27926586
0.23929
0.19400471
0.13631547
0.070380555
-0.028245031
-0.16203739
-0.38982809
-0.17625604
-0.23763862
-0.24200894
-0.27686506
-0.31051557
-0.39026885
-0.43287851
-0.67396343
-0.56136924
-0.60661454
-0.64856888
-0.71968505
-0.79801542
-0.97161243
-1.1127902
-1.7786452
-1.1000328
-1.2478167
-1.217705
-1.2689666
-1.3966682
-1.6162401
-1.2779251
-1.3390554
-1.3214374
-1.3955087
-1.5292605
-1.21923
-1.2613627
-1.1440583
-1.2449308
-1.071566
-1.0811828
-1.0195882
0.11196188
0.060271664
0.047424786
-0.19279824
0.1891926
0.20462786
0.32728832
0.2327333
0.39705953
0.43993988
0.4825963
0.54684211
0.46866953
0.59989315
0.63421187
0.69162529
0.69364319
0.77306247
0.6587354
0.82799784
0.83396355
0.88607459
0.89691925
0.9232875
0.93357105
0.95218085
0.95461747
0.97805034
0.98268489
0.99356833
0.99687408
1.0031537
1.0041991
1.0076937
1.0054251
1.0053651
0.99865877
0.99612712
0.98856937
0.9829823
0.97467375
0.96612908
0.9564923
0.94447836
0.93304902
0.91492676
0.90142097
0.86377089
0.86426539
0.84214737
0.82566209
0.8039282
0.77933926
0.74951215
0.71227467
0.65141179
0.58549297
0.622339
0.59029109
0.57758236
0.5507858
0.52853364
0.48491289
0.46231187
0.35755354
0.40101691
0.36254899
0.34213675
0.31203431
0.27825871
0.23804307
0.19240887
0.13430978
0.067610602
-0.03205707
-0.16634877
-0.38688855
-0.17454279
-0.23834468
-0.24262778
-0.27788624
-0.31225093
-0.39216407
-0.43687733
-0.67436775
-0.56052813
-0.60773035
-0.65011633
-0.72171592
-0.80139782
-0.97574139
-1.1209399
-1.7744045
-1.0955248
-1.2487842
-1.2179782
-1.2704501
-1.3987859
-1.6145213
-1.2762126
-1.3393131
-1.321763
-1.3963135
-1.5281295
-1.2181707
-1.2610793
-1.1439759
-1.244642
-1.0710679
-1.0810359
-1.0194922
0.11188649
0.060400188
0.047931184
-0.19149829
0.18783751
0.20400042
0.32708605
0.23294028
0.39596549
0.4393837
0.48189429
0.54683104
0.4689013
0.59860374
0.63334791
0.69103205
0.69287294
0.77326418
0.65906175
0.82590617
0.83309798
0.88514201
0.89635695
0.9227338
0.93313416
0.95185934
0.954257
0.97759034
0.98241308
0.99331988
0.99670228
1.0030167
1.0041048
1.0076437
1.0054208
1.0054341
0.99878424
0.99625515
0.98875364
0.98317143
0.97488948
0.96634194
0.95672409
0.94470846
0.9333022
0.91519592
0.90187688
0.86451303
0.8643981
0.84242187
0.82580145
0.80405758
0.7794197
0.74954324
0.71223468
0.65268985
0.58733592
0.62243647
0.59036366
0.57743516
0.55056262
0.52808319
0.48446307
0.46141547
0.3587092
0.40086215
0.3620211
0.34150371
0.31119838
0.27719022
0.23671885
0.19071408
0.13218178
0.064669836
-0.035800897
-0.17022306
-0.38211001
-0.1731195
-0.23916371
-0.24330235
-0.2789681
-0.31409722
-0.39419864
-0.44093111
-0.67401186
-0.5597223
-0.60891485
-0.65177339
-0.72389213
-0.80500711
-0.97987772
-1.1290703
-1.7673094
-1.0913703
-1.2496632
-1.2182836
-1.2719004
-1.400723
-1.6120375
-1.2745293
-1.339572
-1.3220982
-1.3969735
-1.5266402
-1.2170521
-1.2607664
-1.1439161
-1.244274
-1.0705367
-1.080882
-1.019412
0.1118193
0.06056537
0.048688492
-0.18940148
0.18655961
0.20341676
0.3268326
0.23338064
0.39491817
0.43879615
0.48119036
0.54678577
0.46938252
0.59742721
0.6324764
0.69039584
0.69205376
0.77336248
0.65975146
0.82375074
0.83217131
0.88414678
0.89575559
0.92214102
0.93266683
0.95151193
0.95391216
0.97710721
0.9821227
0.99305346
0.99651778
1.002869
1.0040027
1.0075902
1.0054121
1.0055691
0.99895668
0.99644599
0.98897932
0.98338849
0.97515052
0.9666076
0.95702112
0.94500158
0.93363496
0.91551533
0.90239021
0.8654176
0.864502
0.84273809
0.82601064
0.80423808
0.77953475
0.74964394
0.71222737
0.65459346
0.58967951
0.62270591
0.59054736
0.57729432
0.55038392
0.52762305
0.48407438
0.46063446
0.36044564
0.40063678
0.36162924
0.34083913
0.31033109
0.27606346
0.23531787
0.18891876
0.12992678
0.061683744
-0.0395515
-0.1728412
-0.37534835
-0.17181356
-0.23965782
-0.24402519
-0.28005349
-0.31605901
-0.39625194
-0.44499374
-0.67291987
-0.55885484
-0.61008543
-0.65353758
-0.72619419
-0.80883534
-0.98423265
-1.1364125
-1.7569693
-1.0872285
-1.2504388
-1.2186074
-1.2732274
-1.4021079
-1.6085742
-1.2727154
-1.3396349
-1.3223389
-1.3973703
-1.5246619
-1.2158688
-1.2603829
-1.1438354
-1.2437858
-1.0699639
-1.0807071
-1.0193147
0.11178218
0.06070648
0.049730951
-0.18637936
0.18543222
0.2028123
0.32652059
0.23419499
0.39390616
0.43820993
0.48043316
0.54669285
0.47026522
0.59620436
0.63156091
0.68971542
0.69123543
0.77333196
0.661007
0.82163353
0.83120931
0.88308569
0.89511139
0.92150569
0.9321661
0.9511348
0.95355869
0.97659899
0.98181086
0.99276593
0.99631723
1.0027071
1.0038884
1.0075293
1.0053946
1.0056458
0.99910096
0.99658823
0.98919959
0.98362073
0.97540667
0.96686368
0.95729725
0.94528381
0.93395074
0.91585631
0.90292545
0.8664818
0.86471862
0.84309492
0.82622184
0.80443525
0.77967862
0.74980757
0.71228066
0.65696779
0.59263143
0.62307201
0.59085103
0.5772293
0.55022551
0.5272194
0.4837513
0.4600497
0.36284917
0.40033957
0.36121262
0.34014389
0.30944315
0.27486593
0.23384553
0.18703777
0.12762121
0.058597952
-0.043080554
-0.17486412
-0.36664357
-0.17092806
-0.24017006
-0.24477828
-0.28118738
-0.31808623
-0.39842084
-0.44901525
-0.67097845
-0.55793785
-0.61131702
-0.65539496
-0.72859678
-0.81279696
-0.98846335
-1.1430713
-1.7432007
-1.0836016
-1.2508244
-1.2189304
-1.2745436
-1.4030943
-1.6039475
-1.2708809
-1.3395526
-1.3226278
-1.3972825
-1.5220543
-1.2145811
-1.2598823
-1.1437322
-1.2431293
-1.0693382
-1.0805
-1.0192233
0.11179576
0.060824145
0.05103995
-0.18234003
0.18432055
0.20230577
0.32614616
0.23537851
0.39294838
0.43759269
0.47970275
0.54652622
0.47152938
0.59515127
0.63064309
0.68899145
0.69035976
0.77321402
0.66279824
0.81945787
0.830176
0.88195296
0.89441821
0.92082242
0.93162691
0.95072215
0.95321201
0.97606001
0.98147179
0.99245133
0.99609416
1.0025241
1.0037533
1.0074519
1.0053602
1.0057723
0.99927729
0.99680044
0.98942934
0.98383959
0.97568163
0.9671417
0.95761275
0.94559114
0.93430474
0.91621044
0.90344201
0.86773778
0.86496096
0.84348391
0.82646103
0.80464464
0.7798344
0.75002537
0.71241352
0.65963772
0.59615848
0.6234855
0.59127882
0.57724627
0.55011445
0.52682407
0.48351692
0.45936985
0.36589075
0.40006539
0.36095148
0.33944411
0.3085232
0.27362919
0.23229934
0.18506166
0.12516264
0.05547848
-0.046580497
-0.17551329
-0.356082
-0.1699864
-0.24020754
-0.24555786
-0.28226102
-0.3201944
-0.40057325
-0.45298439
-0.66777719
-0.55693854
-0.6124769
-0.65729926
-0.73111909
-0.81695892
-0.99284388
-1.1491263
-1.7260163
-1.0798392
-1.2507116
-1.219258
-1.2754048
-1.4029632
-1.5980097
-1.2688598
-1.3392807
-1.3226093
-1.3969015
-1.5186779
-1.2131851
-1.2592095
-1.1435905
-1.2422569
-1.0686518
-1.0802424
-1.0191305
0.11185089
0.060984245
0.052672197
-0.17723673
0.18348982
0.20179557
0.32570906
0.23695225
0.39208311
0.43698503
0.47892196
0.5462846
0.47318159
0.59404779
0.62968409
0.68822644
0.6894934
0.77297935
0.66518388
0.81733763
0.82910065
0.88073913
0.89366658
0.92008299
0.9310411
0.95026511
0.95285525
0.97547948
0.98109507
0.99209907
0.99583693
1.0023073
1.0035831
1.0073408
1.0052781
1.0058163
0.99941379
0.99692733
0.98966987
0.98409354
0.97595069
0.9674119
0.9578991
0.94588674
0.93463795
0.91656416
0.90392299
0.86913306
0.86522424
0.84388257
0.82670822
0.80485258
0.77997706
0.75024764
0.71259116
0.66237551
0.60008734
0.62392012
0.59180661
0.57730533
0.55004682
0.52647253
0.48332492
0.45864178
0.36917736
0.40003612
0.36063591
0.33874222
0.30757016
0.27230804
0.230668
0.18298263
0.12266088
0.052319356
-0.04971352
-0.17530412
-0.34414105
-0.16966897
-0.24015604
-0.24631875
-0.28334063
-0.32233819
-0.40276907
-0.45674078
-0.6634435
-0.55606924
-0.61366296
-0.65928632
-0.73371952
-0.82121411
-0.99693377
-1.153884
-1.7055922
-1.0766846
-1.2502901
-1.2192455
-1.276272
-1.4023297
-1.5905912
-1.2668124
-1.3387592
-1.3224798
-1.3960424
-1.5144202
-1.2116825
-1.258319
-1.1433788
-1.2411244
-1.0679035
-1.0799129
-1.0189998
0.11196781
0.061211981
0.054693455
-0.17107017
0.18257188
0.20145192
0.3252094
0.23891608
0.39125028
0.43636175
0.47819436
0.54596829
0.47520082
0.59313945
0.62872225
0.68741934
0.68852426
0.77272068
0.66793772
0.81511233
0.82794324
0.87943067
0.89284193
0.91927465
0.93039546
0.9497504
0.95246696
0.97483853
0.98066337
0.99169168
0.99552668
1.0020364
1.0033567
1.0071703
1.0051203
1.0057915
0.99954533
0.99711432
0.98984445
0.98425931
0.97618427
0.96763847
0.95816396
0.94612331
0.93492052
0.91686761
0.90431409
0.87050916
0.86547992
0.84426404
0.82689623
0.80503274
0.78006801
0.75040737
0.71281914
0.66489392
0.60424583
0.62438032
0.59239526
0.57739957
0.55000383
0.52611054
0.48320661
0.4581618
0.37232673
0.40025689
0.36047019
0.33802381
0.30656044
0.27093263
0.22893819
0.18079266
0.11999398
0.049117592
-0.05288918
-0.17456668
-0.33175256
-0.16789948
-0.24003021
-0.2468598
-0.28438076
-0.32449974
-0.40489266
-0.46037726
-0.6580568
-0.55507557
-0.6147798
-0.6612733
-0.73640263
-0.82558787
-1.0010369
-1.1584795
-1.6822341
-1.0732016
-1.2494641
-1.2190661
-1.2764671
-1.4008949
-1.5815621
-1.2645946
-1.337876
-1.3221502
-1.3946648
-1.5092072
-1.210082
-1.2571813
-1.1430777
-1.2396873
-1.067096
-1.0794937
-1.0188394
0.11217174
0.061523875
0.057110523
-0.16392717
0.18204234
0.20109513
0.32464462
0.24124334
0.39055361
0.43575402
0.47739851
0.54556661
0.47755399
0.59213293
0.62770927
0.68656317
0.68760093
0.77253711
0.67061554
0.81310003
0.82665884
0.87800557
0.89192322
0.91837862
0.92967061
0.94915893
0.95203588
0.97411152
0.98015246
0.9912045
0.99513795
1.0016875
1.0030459
1.0069116
1.0048509
1.0056946
0.99953079
0.99715198
0.9900375
0.98445503
0.97637703
0.96782863
0.9583576
0.94632003
0.93514214
0.91707241
0.90461083
0.87177617
0.86565635
0.84461527
0.82702842
0.80504859
0.78003491
0.75047958
0.71305749
0.66720845
0.60861358
0.6248322
0.59299337
0.57749434
0.54991085
0.5257233
0.48304273
0.45758391
0.37540165
0.40050486
0.36016946
0.33725573
0.30546854
0.26942949
0.22708622
0.17845802
0.11725155
0.045871221
-0.055702595
-0.17320511
-0.31934443
-0.16566037
-0.23983434
-0.24736748
-0.28544411
-0.3266741
-0.40702322
-0.46364855
-0.65161737
-0.55440277
-0.61594731
-0.66334277
-0.73916746
-0.8300275
-1.0047549
-1.1610211
-1.6560574
-1.0704823
-1.2482552
-1.2185956
-1.2763206
-1.3985603
-1.5709042
-1.2623351
-1.3366398
-1.321577
-1.3925012
-1.5029872
-1.208385
-1.2557736
-1.1426777
-1.2378984
-1.0662321
-1.0789716
-1.0186324
0.11237116
0.061937268
0.059918063
-0.15569762
0.18142511
0.20097008
0.32400297
0.24394535
0.38982149
0.43513663
0.47666165
0.54508463
0.48022869
0.59131512
0.62666478
0.68564846
0.68652666
0.77240028
0.67314774
0.81103471
0.82527163
0.87643454
0.89088422
0.91737084
0.92884231
0.94846758
0.95149648
0.97327066
0.97953572
0.99061037
0.99464645
1.0012369
1.0026242
1.0065417
1.0044433
1.0054763
0.99945515
0.99711985
0.99003558
0.98446382
0.97646346
0.96789566
0.95845782
0.94636966
0.93523125
0.91718112
0.90484169
0.87294743
0.86578865
0.84481453
0.8270181
0.80500635
0.7799292
0.75044824
0.7132615
0.66942849
0.61294784
0.62519113
0.59360411
0.57756024
0.5497543
0.52526582
0.48288876
0.45738961
0.37858882
0.40059142
0.35985821
0.33645689
0.30423898
0.26781493
0.22506208
0.17595148
0.11428252
0.042507651
-0.058644733
-0.17117181
-0.30699703
-0.16300931
-0.23955188
-0.24766868
-0.28651007
-0.32886454
-0.40907512
-0.46679839
-0.64450385
-0.55343926
-0.61712832
-0.66537635
-0.74201547
-0.83452188
-1.0083154
-1.1642036
-1.6280498
-1.0672778
-1.2467649
-1.217723
-1.2758407
-1.3953305
-1.5587101
-1.2598676
-1.3350254
-1.3206561
-1.3895607
-1.4957049
-1.2065824
-1.2540746
-1.1421704
-1.2357071
-1.0653151
-1.0783353
-1.0183711
0.11250852
0.062467367
0.063112305
-0.14621679
0.18005188
0.20075593
0.32333799
0.24696475
0.38925269
0.43452022
0.47579127
0.54464296
0.48305421
0.59030665
0.62553431
0.68466069
0.68543667
0.7722505
0.67559526
0.80899641
0.8237296
0.87468801
0.88969848
0.9162257
0.92788674
0.94765146
0.95083779
0.97229706
0.97878952
0.98989187
0.99403396
1.0006655
1.002078
1.0060514
1.0038896
1.0050932
0.99927579
0.99700291
0.98999107
0.98442698
0.97644223
0.9678709
0.95843921
0.9463414
0.93520821
0.91717581
0.90491419
0.87403977
0.86578757
0.84499569
0.82696187
0.80487993
0.77972001
0.75033773
0.71343564
0.67158019
0.61714273
0.62548157
0.59421962
0.57758462
0.54950621
0.52473411
0.48262908
0.45679729
0.38184636
0.4006013
0.35930002
0.33554251
0.3028608
0.26599983
0.22285154
0.17322254
0.11116672
0.039048241
-0.061238908
-0.16845823
-0.29493118
-0.16015827
-0.23922393
-0.24799796
-0.28768351
-0.33111182
-0.41119477
-0.46955179
-0.63744182
-0.55205787
-0.61842582
-0.66751628
-0.74499968
-0.83911101
-1.0116201
-1.1645163
-1.5995011
-1.0622906
-1.245082
-1.2164667
-1.2749712
-1.3915293
-1.5449307
-1.2572708
-1.3330086
-1.3193843
-1.3858759
-1.4873748
-1.2046728
-1.2520611
-1.141543
-1.2330644
-1.0643482
-1.0775741
-1.0180517
0.1126216
0.063116648
0.06677312
-0.13579164
0.17928347
0.20076296
0.32282521
0.24989199
0.38849653
0.43386519
0.47500661
0.54430897
0.4857546
0.58940657
0.62432647
0.68358326
0.68416167
0.77205272
0.67801561
0.80681614
0.8220297
0.87274207
0.88834687
0.91492175
0.9267865
0.94668992
0.95007551
0.97118484
0.9779023
0.98904107
0.99329045
0.99996751
1.001407
1.0054427
1.003201
1.0045707
0.99897976
0.99678342
0.98985775
0.98430955
0.97636224
0.96778546
0.95836824
0.94625258
0.9351311
0.91714072
0.9048876
0.87505514
0.86576043
0.84505793
0.82684378
0.8046798
0.77943188
0.75018542
0.71361215
0.67363126
0.62130444
0.62582177
0.59484101
0.57758522
0.54920471
0.52413548
0.48240135
0.45651695
0.38502271
0.40022909
0.35889139
0.33451997
0.30131274
0.26401151
0.2204091
0.17027074
0.10778525
0.035437812
-0.063927411
-0.16524683
-0.28310485
-0.15730342
-0.2388576
-0.24821148
-0.28891296
-0.33343928
-0.41328091
-0.47225444
-0.63063141
-0.55020815
-0.61968627
-0.66967392
-0.74809705
-0.8437494
-1.0144858
-1.1664129
-1.5699453
-1.0575543
-1.2428983
-1.2147471
-1.2737256
-1.3875608
-1.5292764
-1.2544403
-1.3305759
-1.3177246
-1.3818706
-1.4776868
-1.2026155
-1.2497099
-1.1407778
-1.2299271
-1.0633324
-1.0766772
-1.0176711
0.11278565
0.063788742
0.070939563
-0.12476527
0.17761188
0.20086162
0.32264443
0.25255779
0.38791933
0.43323882
0.47403514
0.54403541
0.4882627
0.58849364
0.62302483
0.68240392
0.68284127
0.77170609
0.68048594
0.80434664
0.82017068
0.87058841
0.88681815
0.91344776
0.9255357
0.94557614
0.94919649
0.96993631
0.97687681
0.98805363
0.99242019
0.99914745
1.0006197
1.0047258
1.0023963
1.0039306
0.99854976
0.99647332
0.98963548
0.98411033
0.9762104
0.9676318
0.95823321
0.94610458
0.93499291
0.91707422
0.90480687
0.87603797
0.86569985
0.84512802
0.82668384
0.80443705
0.77911224
0.75002768
0.71382568
0.67560883
0.62541057
0.62623386
0.59549306
0.57751756
0.54889871
0.52348796
0.48213433
0.45599487
0.38812432
0.39978206
0.35826
0.33335539
0.29961426
0.26184837
0.2177656
0.1670898
0.10427805
0.031798754
-0.0660168
-0.16179014
-0.27146528
-0.15470203
-0.23833095
-0.24853968
-0.29032249
-0.33588961
-0.41551397
-0.47448994
-0.62411145
-0.54813351
-0.62126877
-0.67198628
-0.75142405
-0.84854206
-1.0174483
-1.1667081
-1.5391639
-1.0527429
-1.2399913
-1.2125501
-1.2721283
-1.3833426
-1.5117893
-1.2513667
-1.3277301
-1.3156606
-1.3775663
-1.4663677
-1.2003631
-1.2470022
-1.1398523
-1.22626
-1.0622658
-1.0756345
-1.0172255
0.11320061
0.064468793
0.075505988
-0.11325542
0.17660308
0.20112875
0.32217242
0.25540688
0.38716553
0.43251121
0.47312689
0.54381482
0.49057721
0.58783938
0.62166097
0.68111609
0.68147931
0.77125435
0.682971
0.80168843
0.81817076
0.86823778
0.88510536
0.9118064
0.9241363
0.94430997
0.94820232
0.96856194
0.97572134
0.9869369
0.99143191
0.99821434
0.99972811
1.0039134
1.0014957
1.0031996
0.99802271
0.99605735
0.98933807
0.98384324
0.97599867
0.96742451
0.9580483
0.94591712
0.93481142
0.91699875
0.90467785
0.8770046
0.86563817
0.8451579
0.82650895
0.80418508
0.77879657
0.74989897
0.71411865
0.67753292
0.62941374
0.62672905
0.59620243
0.57750712
0.54857157
0.52284187
0.48194874
0.45566296
0.39125678
0.39912432
0.35768743
0.33214187
0.29778561
0.25952137
0.21493008
0.16371765
0.10051933
0.028039024
-0.068010282
-0.15817559
-0.25995945
-0.15257185
-0.23751092
-0.24873775
-0.29180762
-0.33843864
-0.4176945
-0.47613206
-0.61771505
-0.54628271
-0.62271755
-0.67437279
-0.75488536
-0.85337959
-1.0196822
-1.166278
-1.5078786
-1.0473258
-1.2365788
-1.2099785
-1.2701754
-1.3781484
-1.4930988
-1.2481265
-1.3244804
-1.3131749
-1.372282
-1.4539568
-1.1979326
-1.2439198
-1.1387386
-1.2220406
-1.0611421
-1.0744357
-1.0167108
0.11378349
0.065339178
0.080388425
-0.10131575
0.17509738
0.20156461
0.32180161
0.2585954
0.38630178
0.43180337
0.47235172
0.54355931
0.49278185
0.5867916
0.62022731
0.67972302
0.68009825
0.77072553
0.68549909
0.79898299
0.81603263
0.86569882
0.88321417
0.91000022
0.92259224
0.94289243
0.94710085
0.96707327
0.97444678
0.98570003
0.99033586
0.99717811
0.99874451
1.0030181
1.0005179
1.0024025
0.99741695
0.99557035
0.98898131
0.98352434
0.97574373
0.9671817
0.95783203
0.9457116
0.93460724
0.91693802
0.90452375
0.87794812
0.86559962
0.8452381
0.82634734
0.80395632
0.77852301
0.74983102
0.71453185
0.6794218
0.63332758
0.62732716
0.59699298
0.57752548
0.54834049
0.52220289
0.4818046
0.4552183
0.39435703
0.39827625
0.35699972
0.3307721
0.2958211
0.25704823
0.2119191
0.16017964
0.096754711
0.024437661
-0.069276819
-0.15429577
-0.24850501
-0.15099874
-0.23640116
-0.24912063
-0.29346309
-0.34108377
-0.41980157
-0.47745134
-0.61110035
-0.54494819
-0.62460312
-0.67696762
-0.75860639
-0.85831778
-1.022215
-1.1649556
-1.4761736
-1.0425123
-1.232689
-1.2070369
-1.2678214
-1.3716894
-1.4740255
-1.2445212
-1.3208139
-1.3102477
-1.3661387
-1.4407572
-1.1952754
-1.2404488
-1.1374094
-1.2172637
-1.059949
-1.073071
-1.0161217
0.11445676
0.066470251
0.085528787
-0.088939353
0.17410315
0.20213438
0.32118819
0.26203403
0.38575526
0.43102598
0.47162687
0.54315978
0.49513619
0.58576569
0.61877581
0.67823535
0.67854313
0.76982617
0.68819983
0.7961323
0.81381894
0.86297496
0.88115817
0.90802843
0.92091179
0.94132746
0.94589949
0.96548085
0.97306424
0.98435214
0.98914211
0.99604821
0.99768062
1.0020515
0.99948107
1.0015598
0.99674832
0.9950276
0.9885805
0.98316911
0.97546162
0.96692064
0.95760185
0.94550788
0.93439955
0.91690824
0.90436785
0.87887697
0.86558796
0.84534324
0.82622643
0.80378148
0.7783392
0.74985426
0.71508445
0.68129488
0.63715801
0.62804543
0.59788489
0.57759987
0.548106
0.5216357
0.48182828
0.4549197
0.39741553
0.39728743
0.35637075
0.32938362
0.2937774
0.25442663
0.20879874
0.15652354
0.092864778
0.020860373
-0.070458549
-0.15009024
-0.23704648
-0.1500066
-0.23508575
-0.2494156
-0.29511152
-0.34375932
-0.42185876
-0.47825157
-0.60438332
-0.54420003
-0.62627988
-0.67960833
-0.76238236
-0.86318602
-1.023615
-1.1625526
-1.443322
-1.0370429
-1.2283667
-1.2037163
-1.2649855
-1.3642296
-1.4549048
-1.2402986
-1.3166906
-1.3068276
-1.3593311
-1.4269116
-1.192326
-1.2365764
-1.1358383
-1.2119416
-1.0586681
-1.0715316
-1.0154512
0.11525097
0.06787123
0.090856171
-0.076130886
0.17295255
0.20274585
0.32060331
0.2656935
0.38495647
0.43034648
0.47060731
0.54247876
0.49774011
0.58473702
0.61729901
0.67665736
0.67729371
0.76832509
0.69104625
0.79326842
0.81153231
0.86008118
0.87894623
0.90589696
0.91910265
0.93961872
0.94460376
0.96379371
0.97158394
0.98290177
0.9878601
0.99483329
0.99654721
1.0010242
0.99840077
1.0006872
0.99603344
0.99444226
0.98814972
0.98279197
0.97516717
0.96665728
0.95737389
0.94532421
0.93420643
0.91690337
0.9042312
0.87980718
0.86564894
0.84552837
0.82616644
0.80368407
0.77823782
0.74999865
0.71579743
0.68317163
0.64091334
0.62890024
0.59889664
0.57776165
0.54811104
0.52112498
0.48193524
0.45463684
0.40031953
0.39628241
0.35569828
0.32787106
0.29164248
0.25174517
0.205563
0.15279629
0.089088784
0.017604543
-0.070657428
-0.14556223
-0.22568352
-0.14946387
-0.23366243
-0.2499168
-0.29691714
-0.34640981
-0.42361561
-0.47871257
-0.59759108
-0.54390959
-0.62839774
-0.68249704
-0.76634766
-0.8680162
-1.0252981
-1.1589576
-1.4097022
-1.0319902
-1.2236138
-1.1999874
-1.2616179
-1.3556973
-1.4356578
-1.2355835
-1.3120914
-1.3028877
-1.3515354
-1.4126336
-1.189087
-1.2322916
-1.1340012
-1.2060993
-1.0572766
-1.0698094
-1.0146902
0.11617919
0.069584601
0.096291907
-0.062850653
0.17240937
0.20340337
0.31981546
0.26950028
0.3844514
0.42963274
0.4698635
0.54145292
0.50048613
0.58391335
0.61585987
0.67498397
0.67614954
0.76641818
0.69396456
0.79032934
0.80920962
0.85703302
0.87658824
0.90361084
0.91717198
0.93776938
0.94321746
0.96201946
0.97001502
0.98135676
0.98649849
0.99354119
0.99535428
0.99994519
0.99729127
0.99979681
0.99528736
0.99382679
0.98770184
0.98240612
0.97487396
0.9664064
0.95716305
0.94517753
0.93404483
0.91701024
0.90413458
0.88075172
0.86580684
0.84578737
0.8261549
0.8036564
0.77820644
0.7502856
0.71668837
0.68507737
0.64459968
0.629906
0.60004356
0.57803351
0.54819177
0.52075011
0.48217492
0.45447936
0.40306439
0.39523923
0.35510172
0.32636201
0.28948058
0.24897856
0.20228245
0.149055
0.085336139
0.014557376
-0.070445355
-0.14070832
-0.21449138
-0.14923304
-0.23221612
-0.25035799
-0.29861972
-0.34901468
-0.42515677
-0.47915471
-0.59077694
-0.5438896
-0.63017508
-0.68526808
-0.77028066
-0.87263409
-1.025276
-1.1541114
-1.3759538
-1.0269294
-1.2184197
-1.1958329
-1.2576862
-1.3460365
-1.416275
-1.2304681
-1.306962
-1.2983888
-1.3428937
-1.397869
-1.1855251
-1.2275787
-1.1318784
-1.1997669
-1.0557502
-1.0678956
-1.013828
0.11725005
0.07165056
0.10177866
-0.049091328
0.17208358
0.2042001
0.3189264
0.27344313
0.38383223
0.42902674
0.46902147
0.54015628
0.50334443
0.58297299
0.61444747
0.67322244
0.67505241
0.76424256
0.69691902
0.78743568
0.80686087
0.85384749
0.87409427
0.9011749
0.91512601
0.93578214
0.94174307
0.96016446
0.96836545
0.97972619
0.98506366
0.99217905
0.994111
0.99882275
0.99616386
0.99889921
0.99452383
0.99319222
0.98724843
0.98202353
0.97459435
0.9661815
0.95698311
0.94508291
0.93392918
0.91717092
0.90409203
0.88172394
0.86604823
0.84615762
0.82631461
0.80378051
0.778439
0.75073358
0.71777279
0.68703853
0.6482197
0.63107707
0.60133922
0.57842559
0.54842302
0.52050266
0.48256369
0.45449724
0.40564981
0.39427778
0.35450082
0.32478146
0.28727789
0.2461944
0.19897625
0.14534798
0.081832924
0.012006364
-0.069747532
-0.13549737
-0.20346603
-0.14907461
-0.23088909
-0.25100186
-0.30040469
-0.35151382
-0.42622083
-0.47925801
-0.58367867
-0.54431124
-0.6323766
-0.6883977
-0.77433374
-0.87681547
-1.0247116
-1.1479184
-1.3418471
-1.0220229
-1.2126923
-1.1912233
-1.2529204
-1.3352089
-1.3968788
-1.2249933
-1.3012385
-1.2932881
-1.3335487
-1.3826177
-1.181637
-1.222422
-1.1294535
-1.1929729
-1.0540678
-1.0657803
-1.0128524
0.11847176
0.074082578
0.10728557
-0.034866928
0.17217058
0.20524335
0.31807313
0.27753663
0.38345265
0.42842127
0.46836888
0.53865157
0.50630781
0.58224112
0.61311126
0.67137592
0.674112
0.76173614
0.69988443
0.78453063
0.80451544
0.85054292
0.8714745
0.898594
0.9129702
0.93365998
0.94018158
0.95823401
0.96664237
0.97801646
0.98356388
0.99075357
0.99282471
0.99766266
0.99503044
0.99799595
0.99375603
0.99254911
0.98679972
0.98165464
0.97433911
0.96599443
0.95684618
0.94504611
0.93386986
0.91744169
0.90408724
0.882733
0.86642681
0.8466474
0.82659664
0.80407295
0.778798
0.7513642
0.71906069
0.68906893
0.6517863
0.63242834
0.60279562
0.5789877
0.54883357
0.52053603
0.48311246
0.45460389
0.40809572
0.39335671
0.35397737
0.32323915
0.28510423
0.24340509
0.1957088
0.14175338
0.078508974
0.0097330591
-0.068475222
-0.12995499
-0.19246168
-0.14903623
-0.22963168
-0.25158313
-0.30195777
-0.35381433
-0.42710963
-0.47909926
-0.5761626
-0.54552938
-0.63454418
-0.6911327
-0.77802904
-0.88067885
-1.0230669
-1.1403958
-1.3076861
-1.0177746
-1.2060099
-1.1860686
-1.247303
-1.3232636
-1.3775661
-1.2191294
-1.2948636
-1.2875403
-1.3236016
-1.3668038
-1.1774165
-1.2168028
-1.1267128
-1.1857426
-1.0522141
-1.0634514
-1.0117501
0.11984437
0.076889654
0.11288451
-0.020208134
0.17246642
0.20659462
0.31713506
0.28179231
0.38306841
0.42795692
0.46759026
0.53695301
0.50936182
0.58144773
0.61185594
0.66944394
0.67325045
0.75889684
0.70281511
0.78172106
0.80218572
0.84714153
0.86873921
0.89587317
0.91070894
0.93141066
0.93852854
0.95623267
0.9648516
0.97623345
0.9820057
0.98927051
0.9915032
0.99647039
0.99389711
0.99708844
0.99299472
0.99190741
0.98636516
0.98130899
0.97411752
0.9658553
0.95676284
0.94504378
0.93385497
0.91780612
0.90424538
0.88378747
0.86691219
0.8472606
0.82702961
0.80456366
0.77935285
0.752196
0.72055652
0.69118045
0.65531521
0.6339716
0.60442198
0.57974016
0.54943645
0.52070327
0.48383775
0.45485305
0.41041953
0.39253609
0.35349305
0.32168589
0.28295263
0.240663
0.19251478
0.13830666
0.075559025
0.0082373584
-0.066608459
-0.12413576
-0.18170102
-0.15050144
-0.22811747
-0.25219863
-0.30354049
-0.35595568
-0.42732804
-0.47863091
-0.56856042
-0.5483031
-0.63606885
-0.69423749
-0.78183502
-0.88369719
-1.0206832
-1.1314376
-1.2735986
-1.0143997
-1.1979985
-1.1803227
-1.2407327
-1.3104211
-1.3581709
-1.2128737
-1.2876857
-1.2810884
-1.3130133
-1.350473
-1.1728626
-1.2107003
-1.1236432
-1.1780968
-1.0501799
-1.0608968
-1.0105082
0.12139084
0.080121489
0.11860686
-0.0051567861
0.17308028
0.20825717
0.316242
0.28621049
0.38282394
0.42751722
0.46696694
0.53508502
0.51249264
0.58082213
0.61070998
0.66739492
0.67263859
0.75568892
0.7057038
0.77891583
0.79989433
0.84366812
0.86590048
0.89301829
0.90834546
0.92903403
0.93678609
0.95416496
0.96299904
0.97438337
0.98039507
0.98773523
0.99015621
0.99525147
0.99276886
0.99618072
0.99224722
0.99127529
0.98595309
0.98099501
0.97393754
0.96577182
0.95673416
0.94520438
0.93395765
0.91827861
0.90447893
0.88489458
0.86757781
0.84805586
0.82768268
0.80520724
0.78011983
0.75323693
0.72225924
0.69338823
0.65881426
0.6357142
0.60622392
0.58069381
0.55022787
0.52107892
0.48475187
0.45526237
0.41263236
0.3918199
0.35310182
0.32021124
0.28088915
0.23800157
0.18946197
0.13512518
0.073000554
0.0069516047
-0.064167422
-0.11812086
-0.17125076
-0.1521925
-0.22625898
-0.25273199
-0.30478959
-0.35768794
-0.42717367