/*--------------------------------*- C++ -*----------------------------------*\
| =========                 |                                                 |
| \\      /  F ield         | OpenFOAM: The Open Source CFD Toolbox           |
|  \\    /   O peration     | Version:  v2006                                 |
|   \\  /    A nd           | Website:  www.openfoam.com                      |
|    \\/     M anipulation  |                                                 |
\*---------------------------------------------------------------------------*/
FoamFile
{
    version     2.0;
    format      ascii;
    class       volScalarField;
    location    "4000";
    object      Cx;
}
// * * * * * * * * * * * * * * * * * * * * * * * * * * * * * * * * * * * * * //

dimensions      [0 1 0 0 0 0 0];


internalField   nonuniform List<scalar> 
103740
(
0.024236015
0.022577413
0.021004775
0.019538296
0.018226807
0.017033679
0.015895023
0.014806615
0.01380021
0.012876742
0.011997265
0.011154422
0.010345464
0.0096099698
0.0089511722
0.008323808
0.0077196162
0.0071369207
0.0065756223
0.0061082965
0.0057295631
0.0053615407
0.0050035641
0.004655016
0.0043153227
0.00398395
0.0036641071
0.0033765454
0.0031170569
0.0028639177
0.00261669
0.0023749668
0.0021383677
0.0019065372
0.0016805429
0.0015163202
0.001410921
0.0013069026
0.0012041849
0.0011026915
0.001002349
0.0009030873
0.00080483895
0.00070753912
0.00061112529
0.00051553707
0.0004231459
0.00035509245
0.00030876609
0.00026285808
0.00021731151
0.00017207091
0.00012708193
8.2291008e-05
3.7645076e-05
9.51284e-06
2.7132794e-05
7.4056192e-05
0.0001211257
0.00016840302
0.00021595049
0.00026383147
0.0003121107
0.00036188358
0.00043513341
0.0005309916
0.00062764155
0.00072514387
0.00082356117
0.0009229583
0.0010234026
0.001124964
0.0012277156
0.0013317334
0.0014370973
0.0015569151
0.0017336588
0.0019556331
0.0021818628
0.0024126574
0.0026483469
0.0028892838
0.0031358453
0.0033884358
0.0036748644
0.0039996548
0.0043362523
0.0046814454
0.0050357946
0.0053999024
0.0057744179
0.0061691979
0.0066531264
0.0072209839
0.0078091914
0.0084193179
0.0090530848
0.0097275874
0.010482073
0.011304842
0.012162654
0.013058395
0.0140102
0.015053477
0.016177488
0.017355019
0.018590701
0.019904623
0.021299401
0.022762602
0.024299783
0.024231739
0.02257301
0.021000234
0.019533608
0.01822196
0.017028663
0.015889826
0.014801224
0.013794613
0.012870925
0.011991214
0.011148124
0.010338903
0.0096031293
0.0089440362
0.0083163595
0.0077118376
0.0071287941
0.0065671287
0.0060994162
0.0057202759
0.0053518265
0.0049934025
0.0046443864
0.0043042043
0.003972322
0.0036519487
0.003363836
0.0031037766
0.0028500474
0.0026022115
0.0023598631
0.0021226233
0.0018901384
0.001663478
0.001498579
0.0013924971
0.0012877927
0.0011843892
0.0010822137
0.00098119693
0.0008812731
0.00078237929
0.00068445537
0.00058744366
0.00049128868
0.00039836667
0.00032982275
0.00028305135
0.00023674794
0.00019085957
0.00014533429
0.00010012071
5.5167691e-05
1.0423903e-05
-1.7740954e-05
-8.8296755e-08
4.6932941e-05
9.4164533e-05
0.00014166643
0.00018949858
0.00023772133
0.00028639594
0.00033661385
0.00041035412
0.00050674308
0.0006039598
0.00070205998
0.00080110136
0.00090114395
0.0010022503
0.001104486
0.0012079197
0.0013126234
0.0014186732
0.0015391737
0.0017165935
0.0019392339
0.002166118
0.0023975533
0.0026338681
0.0028754133
0.0031225649
0.0033757263
0.0036627059
0.0039880266
0.0043251337
0.0046708156
0.0050256328
0.0053901879
0.0057651303
0.0061603171
0.0066446323
0.0072128566
0.0078014122
0.0084118686
0.0090459479
0.0097207461
0.010475511
0.011298543
0.012156602
0.013052577
0.014004601
0.015048084
0.016172288
0.01735
0.018585852
0.019899933
0.021294859
0.022758198
0.024295507
0.02422716
0.022568294
0.020995372
0.019528588
0.01821677
0.01702329
0.015884259
0.01479545
0.013788618
0.012864694
0.011984734
0.011141378
0.010331876
0.0095958033
0.0089363937
0.0083083822
0.0077035069
0.0071200905
0.0065580323
0.0060899055
0.0057103294
0.0053414227
0.0049825196
0.0046330022
0.0042922965
0.0039598684
0.0036389272
0.0033502244
0.0030895536
0.0028351924
0.0025867051
0.0023436872
0.0021057612
0.0018725754
0.0016452017
0.0014795783
0.0013727653
0.0012673263
0.0011631882
0.0010602821
0.00095854325
0.00085791028
0.00075832518
0.00065973287
0.00056208085
0.00046531886
0.00037182834
0.00030275912
0.00025551108
0.0002087842
0.00016252978
0.00011669959
7.124548e-05
2.6118847e-05
-1.8729743e-05
-4.6929537e-05
-2.9241856e-05
1.7884168e-05
6.5289353e-05
0.00011303177
0.0001611688
0.0002097576
0.00025885565
0.0003095502
0.00038381571
0.00048077314
0.00057859685
0.00067733734
0.0007770471
0.00087778097
0.00097959649
0.0010825543
0.0011867184
0.0012921568
0.0013989412
0.0015201729
0.0016983167
0.0019216704
0.0021492555
0.002381377
0.0026183614
0.0028605581
0.0031083417
0.0033621146
0.0036496843
0.0039755729
0.0043132258
0.0046594312
0.0050147496
0.0053797838
0.0057551835
0.006150806
0.0066355352
0.0072041522
0.0077930806
0.0084038905
0.0090383045
0.0097134191
0.010468482
0.011291796
0.012150121
0.013046345
0.013998604
0.015042308
0.016166719
0.017344625
0.018580659
0.019894909
0.021289993
0.02275348
0.024290927
0.024222256
0.022563244
0.020990164
0.01952321
0.018211211
0.017017536
0.015878297
0.014789267
0.013782198
0.012858022
0.011977793
0.011134153
0.010324349
0.0095879569
0.0089282082
0.0082998382
0.0076945844
0.0071107686
0.0065482896
0.0060797192
0.0056996764
0.0053302799
0.0049708636
0.0046208093
0.004279543
0.0039465303
0.0036249807
0.0033356459
0.0030743202
0.0028192823
0.0025700973
0.0023263622
0.0020877013
0.0018537648
0.0016256272
0.0014592278
0.0013516318
0.001245406
0.0011404811
0.0010367926
0.00093428035
0.00083288787
0.00073256237
0.00063325419
0.00053491636
0.00043750425
0.00034340482
0.00027377299
0.00022601445
0.00017883403
0.00013218753
8.6030789e-05
4.0319051e-05
-4.9935251e-06
-4.9954363e-05
-7.8191578e-05
-6.0466383e-05
-1.3228129e-05
3.4362982e-05
8.236301e-05
0.00013082658
0.00017980743
0.00022935901
0.00028056404
0.00035539212
0.00045295839
0.00055143222
0.00065085851
0.00075128413
0.00085275838
0.0009553334
0.0010590646
0.0011640112
0.0012702363
0.0013778075
0.0014998223
0.0016787416
0.0019028594
0.0021311951
0.0023640517
0.0026017533
0.0028446477
0.0030931081
0.0033475359
0.0036357377
0.0039622347
0.0043004721
0.0046472381
0.0050030933
0.0053686406
0.00574453
0.0061406192
0.0066257918
0.0071948296
0.0077841573
0.0083953457
0.0090301181
0.0097055716
0.010460955
0.011284569
0.012143179
0.013039671
0.013992182
0.015036121
0.016160755
0.017338868
0.018575096
0.019889529
0.021284783
0.022748428
0.024286023
0.024217004
0.022557834
0.020984586
0.019517452
0.018205257
0.017011374
0.015871911
0.014782643
0.013775321
0.012850875
0.01197036
0.011126415
0.010316288
0.0095795532
0.0089194414
0.0082906875
0.0076850282
0.0071007847
0.006537855
0.0060688095
0.0056882667
0.0053183457
0.0049583798
0.0046077505
0.0042658836
0.0039322448
0.0036100437
0.003320032
0.0030580049
0.0028022421
0.0025523099
0.0023078067
0.0020683587
0.0018336183
0.0016046623
0.001437432
0.0013289974
0.0012219288
0.0011161613
0.0010116349
0.00090829421
0.00080608828
0.0007049698
0.0006048949
0.00050582256
0.00040771414
0.00031296256
0.00024272816
0.00019442286
0.00014675667
9.9690267e-05
5.3183771e-05
7.1961089e-06
-3.8315618e-05
-8.3396676e-05
-0.00011167397
-9.3908597e-05
-4.6550142e-05
1.2401007e-06
4.9516035e-05
9.8329338e-05
0.00014773008
0.0001977674
0.00024951918
0.00032494977
0.00042316814
0.00052233826
0.00062249905
0.00072369138
0.0008259586
0.00092934707
0.0010339066
0.0011396912
0.0012467589
0.0013551728
0.0014780263
0.0016577762
0.0018827123
0.0021118521
0.0023454958
0.0025839656
0.0028276072
0.0030767926
0.0033319219
0.0036208006
0.003947949
0.0042868125
0.004634179
0.0049906092
0.0053567061
0.0057331199
0.0061297089
0.0066153564
0.0071848449
0.0077746002
0.008386194
0.0090213503
0.0096971667
0.010452892
0.01127683
0.012135744
0.013032523
0.013985303
0.015029496
0.016154366
0.017332703
0.018569139
0.019883766
0.021279202
0.022743017
0.02428077
0.024211378
0.022552041
0.020978612
0.019511284
0.018198881
0.017004774
0.015865072
0.01477555
0.013767956
0.012843221
0.011962399
0.011118128
0.010307655
0.0095705528
0.008910052
0.0082808869
0.0076747934
0.0070900918
0.0065266795
0.0060571251
0.0056760469
0.005305564
0.0049450094
0.0045937643
0.0042512542
0.0039169449
0.003594046
0.0033033093
0.0030405311
0.0027839919
0.0025332594
0.0022879336
0.0020476426
0.0018120411
0.0015822087
0.0014140884
0.0013047557
0.0011967845
0.0010901145
0.00098469056
0.00088046273
0.00077738557
0.0006754178
0.00057452172
0.00047466271
0.00037580855
0.00028035849
0.00020947874
0.00016058785
0.0001124014
6.488526e-05
1.8004172e-05
-2.8279011e-05
-7.4004031e-05
-0.00011921385
-0.00014753407
-0.00012972566
-8.2238469e-05
-3.4234953e-05
1.4336481e-05
6.3524355e-05
0.00011337481
0.00016393237
0.00021626972
0.00029234562
0.00039126239
0.00049117825
0.0005921257
0.00069413919
0.0007972557
0.00090151538
0.0010069621
0.0011136441
0.0012216143
0.0013309308
0.0014546826
0.0016353221
0.0018611346
0.0020911355
0.0023256223
0.0025649147
0.0028093567
0.0030593185
0.003315199
0.0036048028
0.003932649
0.0042721829
0.0046201926
0.0049772385
0.005343924
0.0057208996
0.0061180238
0.0066041801
0.0071741511
0.0077643645
0.0083763924
0.0090119599
0.0096881651
0.010444257
0.011268541
0.012127781
0.013024867
0.013977936
0.0150224
0.016147524
0.017326099
0.018562759
0.019877594
0.021273225
0.022737222
0.024275144
0.024205354
0.022545836
0.020972214
0.019504678
0.018192051
0.016997705
0.015857748
0.014767953
0.013760068
0.012835024
0.011953872
0.011109252
0.010298408
0.0095609133
0.008899996
0.0082703905
0.0076638319
0.0070786397
0.0065147104
0.006044611
0.0056629594
0.0052918749
0.0049306898
0.0045787851
0.0042355862
0.0039005587
0.0035769124
0.0032853993
0.0030218166
0.0027644459
0.0025128563
0.0022666495
0.0020254556
0.0017889319
0.0015581609
0.0013890874
0.0012787928
0.0011698549
0.0010622183
0.00095583317
0.00085065516
0.00074664492
0.00064376754
0.000541992
0.00044129045
0.00034163759
0.00024543947
0.00017386853
0.00012435047
7.5606821e-05
2.7609015e-05
-1.9673262e-05
-6.627295e-05
-0.00011222641
-0.00015757413
-0.00018594032
-0.00016808583
-0.00012046075
-7.2228821e-05
-2.3340905e-05
2.6248137e-05
7.6580233e-05
0.00012769498
0.00018065948
0.00025742651
0.00035709127
0.00045780581
0.00055959579
0.00066248874
0.00076651483
0.00087170758
0.0009781045
0.0010857477
0.0011946844
0.0013049676
0.0014296814
0.0016112736
0.0018380248
0.0020689479
0.0023043377
0.0025445112
0.0027898104
0.0030406038
0.0032972889
0.0035876691
0.0039162626
0.0042565147
0.0046052131
0.0049629185
0.0053302344
0.0057078117
0.0061055091
0.0065922102
0.0071626981
0.007753402
0.0083658949
0.0090019027
0.0096785243
0.010435009
0.011259663
0.012119252
0.013016667
0.013970046
0.0150148
0.016140197
0.017319026
0.018555925
0.019870984
0.021266824
0.022731015
0.024269118
0.024198901
0.022539191
0.020965362
0.019497603
0.018184737
0.016990134
0.015849903
0.014759817
0.013751621
0.012826245
0.01194474
0.011099746
0.010288505
0.0095505896
0.0088892262
0.008259149
0.0076520923
0.0070663747
0.0065018918
0.0060312087
0.0056489429
0.005277214
0.0049153537
0.0045627427
0.0042188059
0.0038830093
0.0035585626
0.0032662179
0.0030017736
0.0027435124
0.0024910048
0.0022438544
0.0020016936
0.0017641822
0.001532406
0.0013623117
0.0012509868
0.0011410137
0.0010323419
0.00092492728
0.00081873163
0.00071372207
0.00060987052
0.00050715307
0.00040554918
0.00030504091
0.00020804163
0.00013573043
8.554068e-05
3.6200271e-05
-1.2313396e-05
-6.0025345e-05
-0.00010696401
-0.00015316212
-0.00019865753
-0.00022707296
-0.00020916911
-0.00016139637
-0.0001129198
-6.3692935e-05
-1.3674246e-05
3.7173688e-05
8.8885166e-05
0.00014252134
0.00022002856
0.00032049441
0.00042206435
0.00052475666
0.0006285915
0.00073359175
0.00083978381
0.00094719835
0.001055871
0.0011658429
0.0012771613
0.0014029055
0.001585518
0.0018132745
0.0020451854
0.0022815422
0.0025226594
0.0027688766
0.0030205605
0.0032781073
0.0035693192
0.003898713
0.0042397342
0.0045891703
0.004947582
0.0053155731
0.0056937946
0.0060921061
0.0065793906
0.007150432
0.0077416613
0.0083546523
0.0089911316
0.0096681991
0.010425105
0.011250155
0.012110119
0.013007886
0.013961596
0.015006661
0.016132349
0.017311452
0.018548607
0.019863905
0.021259968
0.022724367
0.024262665
0.024191991
0.022532074
0.020958023
0.019490026
0.018176904
0.016982026
0.015841502
0.014751103
0.013742573
0.012816842
0.01193496
0.011089565
0.0102779
0.009539533
0.0088776918
0.0082471095
0.0076395193
0.007053239
0.0064881631
0.0060168549
0.0056339314
0.0052615123
0.0048989289
0.0045455613
0.0042008344
0.003864214
0.0035389101
0.0032456749
0.0029803077
0.0027210928
0.0024676021
0.0022194412
0.0019762447
0.0017376756
0.0015048227
0.0013336351
0.0012212068
0.0011101249
0.0010003445
0.00089182732
0.00078454179
0.00067846196
0.00057356708
0.00046984085
0.00036727055
0.00026584615
0.00016798882
9.4884821e-05
4.3975686e-05
-6.0038492e-06
-5.5070003e-05
-0.00010324213
-0.00015054383
-0.00019700397
-0.00024265755
-0.00027112571
-0.000253169
-0.00020523811
-0.00015649954
-0.00010690966
-5.6430822e-05
-5.0304283e-06
4.732015e-05
0.00010167569
0.00017997565
0.00028129946
0.00038378552
0.00048744422
0.00059228783
0.0006983314
0.00080559371
0.00091409811
0.0010238733
0.0011349539
0.0012473811
0.0013742287
0.001557934
0.0017867671
0.0020197359
0.0022571284
0.0024992562
0.0027464566
0.0029990944
0.0032575641
0.0035496666
0.0038799175
0.0042217624
0.0045719886
0.0049311568
0.0052998709
0.0056787825
0.0060777515
0.0065656609
0.0071372952
0.0077290872
0.0083426115
0.008979596
0.009657141
0.010414498
0.011239973
0.012100336
0.012998481
0.013952546
0.014997943
0.016123944
0.01730334
0.018540768
0.019856323
0.021252625
0.022717248
0.024255754
0.024184589
0.022524452
0.020950163
0.019481911
0.018168514
0.016973342
0.015832504
0.01474177
0.013732884
0.012806772
0.011924486
0.011078661
0.010266541
0.0095276912
0.0088653384
0.008234215
0.0076260535
0.0070391705
0.0064734596
0.0060014818
0.0056178539
0.0052446956
0.0048813377
0.0045271598
0.0041815867
0.0038440841
0.0035178621
0.003223673
0.0029573175
0.0026970812
0.0024425376
0.0021932942
0.0019489886
0.0017092866
0.0014752807
0.0013029221
0.0011893121
0.0010770427
0.00096607479
0.00085637681
0.000747924
0.0006406979
0.00053468559
0.00042987894
0.0003262736
0.00022386802
0.0001250917
5.1138593e-05
-5.4101214e-07
-5.1205063e-05
-0.00010086294
-0.00014952792
-0.00019721844
-0.00024395922
-0.00028978221
-0.00031830685
-0.00030029352
-0.00025219325
-0.00020317407
-0.0001531954
-0.00010222373
-5.0231637e-05
2.8034296e-06
5.7929415e-05
0.00013707841
0.00023932112
0.00034278836
0.00044748209
0.0005534061
0.00066056708
0.00076897565
0.00087864731
0.00098960329
0.0011018713
0.001215486
0.0013435155
0.0015283912
0.0017583774
0.0019924792
0.0022309809
0.0024741911
0.0027224446
0.0029761039
0.003235562
0.0035286184
0.0038597874
0.0042025144
0.0045535868
0.0049135652
0.0052830537
0.0056627044
0.0060623776
0.0065509563
0.0071232256
0.0077156201
0.0083297157
0.0089672411
0.0096452976
0.010403137
0.011229067
0.01208986
0.012988408
0.013942853
0.014988607
0.016114942
0.017294651
0.018532374
0.019848203
0.021244761
0.022709623
0.024248351
0.024176663
0.022516289
0.020941745
0.019473219
0.018159529
0.016964042
0.015822867
0.014731774
0.013722506
0.012795987
0.011913268
0.011066983
0.010254375
0.0095150086
0.0088521077
0.0082204049
0.0076116315
0.007024103
0.0064577119
0.005985017
0.0056006346
0.0052266847
0.0048624973
0.0045074517
0.0041609722
0.0038225246
0.0034953193
0.0032001087
0.0029326947
0.0026713644
0.0024156931
0.0021652906
0.001919797
0.0016788816
0.0014436407
0.001270028
0.0011551524
0.0010416111
0.00092937151
0.00081840885
0.00070870586
0.00060025208
0.00049304299
0.00038707919
0.00028236531
0.00017890885
7.9148287e-05
4.2857691e-06
-4.8219024e-05
-9.9616205e-05
-0.00014990783
-0.00019910067
-0.00024720763
-0.00029424897
-0.0003402534
-0.00036883853
-0.00035076456
-0.00030248288
-0.00025316316
-0.00020276808
-0.00015126858
-9.8642773e-05
-4.4874607e-05
1.1076544e-05
9.1134877e-05
0.00019436174
0.00029887983
0.00040468209
0.00051176323
0.00062012098
0.00072975722
0.00084067904
0.00095289969
0.0010664394
0.0011813259
0.0013106213
0.0014967505
0.0017279717
0.0019632869
0.0022029766
0.0024473461
0.0026967274
0.0029514808
0.0032119975
0.0035060756
0.0038382278
0.0041818996
0.0045338783
0.0048947243
0.0052650422
0.0056454845
0.006045912
0.0065352075
0.0071081568
0.0077011967
0.0083159042
0.0089540089
0.0096326132
0.010390969
0.011217387
0.012078639
0.01297762
0.013932472
0.014978608
0.016105301
0.017285346
0.018523383
0.019839506
0.021236339
0.022701457
0.024240424
0.024168173
0.022507545
0.02093273
0.019463911
0.018149906
0.016954081
0.015812546
0.014721069
0.013711391
0.012784435
0.011901253
0.011054476
0.010241346
0.0095014255
0.0088379377
0.0082056143
0.0075961855
0.0070079657
0.0064408462
0.0059673834
0.0055821929
0.0052073951
0.0048423193
0.0044863443
0.0041388942
0.0037994346
0.0034711762
0.0031748714
0.0029063238
0.0026438218
0.0023869427
0.0021352987
0.0018885329
0.001646318
0.0014097545
0.0012347986
0.0011185675
0.001003664
0.00089006239
0.00077774524
0.00066670331
0.00055693468
0.00044844384
0.00034124074
0.0002353396
0.00013075766
2.9942961e-05
-4.5893537e-05
-9.9282109e-05
-0.00015146447
-0.00020243484
-0.00025219302
-0.00030074598
-0.00034810923
-0.00039430799
-0.00042295791
-0.00040481898
-0.00035634301
-0.00030670142
-0.00025586036
-0.00020379556
-0.00015049104
-9.5937717e-05
-3.9102812e-05
4.1929419e-05
0.00014621031
0.00025185387
0.00035884337
0.0004671638
0.00057680329
0.00068775435
0.00080001509
0.00091359021
0.0010284919
0.0011447406
0.0012753916
0.0014628633
0.0016954072
0.001932022
0.0021729841
0.0024185952
0.0026691843
0.0029251095
0.00318676
0.0034819322
0.0038151375
0.0041598212
0.0045127705
0.0048745458
0.005245752
0.0056270421
0.0060282774
0.0065183406
0.0070920182
0.0076857494
0.0083011121
0.0089398373
0.0096190283
0.010377938
0.011204877
0.012066621
0.012966066
0.013921354
0.014967899
0.016094975
0.01727538
0.018513754
0.019830192
0.021227319
0.022692711
0.024231933
0.024159081
0.022498182
0.020923074
0.019453942
0.018139599
0.016943413
0.015801492
0.014709604
0.013699487
0.012772064
0.011888385
0.011041081
0.010227392
0.0094868782
0.0088227618
0.0081897737
0.0075796431
0.0069906829
0.0064227832
0.0059484979
0.005562442
0.0051867362
0.0048207089
0.0044637385
0.0041152487
0.0037747053
0.003445319
0.0031478425
0.0028780807
0.0026143239
0.0023561513
0.0021031777
0.0018550493
0.0016114426
0.0013734625
0.0011970682
0.0010793853
0.00096302299
0.00084796262
0.00073419482
0.0006217189
0.00051054207
0.00040067848
0.00029214808
0.0001849754
7.9188065e-05
-2.2755601e-05
-9.9635227e-05
-0.00015397032
-0.00020699362
-0.00025869092
-0.00030905458
-0.00035808521
-0.00040579322
-0.00045220009
-0.0004809194
-0.00046271092
-0.00041402686
-0.00036404054
-0.00031272185
-0.0002600516
-0.00020602018
-0.00015062596
-9.2844556e-05
-1.0769284e-05
9.4640474e-05
0.00020148941
0.00030975043
0.00041939814
0.00053041036
0.0006427696
0.00075646431
0.00087149006
0.00098785047
0.001105558
0.0012376609
0.0014265705
0.0016605309
0.0018985376
0.0021408623
0.0023878032
0.002639686
0.0028968661
0.0031597308
0.0034560749
0.003790408
0.0041361755
0.0044901642
0.0048529349
0.0052250924
0.0056072905
0.0060093909
0.0065002763
0.0070747339
0.0076692054
0.0082852699
0.0089246596
0.009604479
0.010363981
0.01119148
0.012053751
0.012953692
0.013909446
0.01495643
0.016083917
0.017264707
0.018503441
0.019820217
0.021217658
0.022683344
0.02422284
0.024149343
0.022488153
0.020912733
0.019443265
0.018128561
0.016931987
0.015789654
0.014697325
0.013686738
0.012758815
0.011874604
0.011026735
0.010212447
0.009471298
0.0088065084
0.0081728085
0.0075619262
0.006972173
0.0064034378
0.0059282715
0.0055412888
0.0051646104
0.0047975641
0.0044395277
0.0040899245
0.0037482203
0.0034176261
0.0031188946
0.0028478324
0.0025827316
0.0023231737
0.002068776
0.0018191883
0.001574091
0.0013345939
0.0011566588
0.0010374211
0.00091949639
0.00080287372
0.00068755227
0.00057354054
0.00046085553
0.00034952171
0.00023956978
0.00013103527
2.3956947e-05
-7.9195854e-05
-0.00015719268
-0.00021254151
-0.00026646545
-0.0003189413
-0.00036995343
-0.00041949565
-0.0004675729
-0.00051420267
-0.00054299629
-0.00052471331
-0.00047580639
-0.00042545087
-0.00037362062
-0.00032030193
-0.000265492
-0.00020919717
-0.00015040206
-6.7209687e-05
3.9409089e-05
0.00014754899
0.00025717182
0.00036824105
0.00048072348
0.00059459088
0.00070982138
0.00082640076
0.00094432344
0.0010635934
0.0011972513
0.0013877008
0.0016231784
0.0018626758
0.00210646
0.002354825
0.0026080932
0.0028666174
0.0031307826
0.0034283818
0.0037639227
0.0041108509
0.004465953
0.0048297895
0.005202966
0.0055861365
0.0059891635
0.0064809294
0.0070562225
0.0076514868
0.0082683029
0.0089084043
0.0095888967
0.010349034
0.011177131
0.012039967
0.012940439
0.013896694
0.014944146
0.016072073
0.017253275
0.018492396
0.019809533
0.021207311
0.022673312
0.024213101
0.024138914
0.022477412
0.020901657
0.01943183
0.018116739
0.016919751
0.015776975
0.014684174
0.013673084
0.012744625
0.011859844
0.011011371
0.010196441
0.0094546115
0.0087891008
0.0081546386
0.0075429511
0.0069523487
0.0063827186
0.0059066089
0.0055186335
0.0051409135
0.0047727759
0.0044135977
0.004062802
0.0037198546
0.0033879666
0.003087891
0.0028154362
0.002548896
0.0022878543
0.0020319315
0.0017807808
0.0015340871
0.0012929651
0.00111338
0.00099247705
0.0008728789
0.00075458298
0.00063759755
0.00052194093
0.00040764064
0.00029473218
0.00018325777
7.3264713e-05
-3.519627e-05
-0.00013964407
-0.00021883743
-0.00027527199
-0.00033016054
-0.00038347023
-0.00043517688
-0.00048526702
-0.00053373974
-0.00058060824
-0.00060948145
-0.00059111868
-0.00054197307
-0.00049122212
-0.00043884399
-0.00038483082
-0.00032918708
-0.00027192769
-0.00021204688
-0.00012765807
-1.9744413e-05
8.977813e-05
0.00020085949
0.00031345118
0.00042750822
0.00054299088
0.00065986625
0.00077810959
0.00089770549
0.0010186488
0.0011539722
0.0013460709
0.0015831735
0.0018242673
0.0020696146
0.0023195049
0.002574257
0.0028342207
0.0030997788
0.0033987222
0.0037355567
0.004083728
0.0044400224
0.0048050007
0.0051792684
0.0055634803
0.0059674997
0.0064602088
0.0070363966
0.0076325101
0.0082501311
0.0088909948
0.0095722079
0.010333025
0.011161763
0.012025203
0.012926246
0.013883036
0.01493099
0.016059388
0.017241033
0.018480567
0.019798091
0.02119623
0.022662568
0.02420267
0.024127744
0.022465909
0.020889796
0.019419583
0.018104077
0.016906645
0.015763395
0.014670089
0.013658461
0.012729427
0.011844036
0.010994915
0.010179298
0.0094367402
0.0087704572
0.0081351785
0.0075226288
0.0069311168
0.0063605283
0.005883408
0.0054943696
0.005115534
0.0047462275
0.0043858264
0.0040337536
0.0036894747
0.0033562011
0.0030546859
0.0027807395
0.0025126578
0.002250027
0.0019924707
0.001739646
0.0014912425
0.0012483803
0.0010670279
0.00094434153
0.00082295115
0.00070286317
0.00058409559
0.00046667728
0.000350647
0.00023605209
0.00012294707
1.1391895e-05
-9.8549939e-05
-0.00020438471
-0.00028485957
-0.00034245696
-0.00039837861
-0.00045258137
-0.00050503187
-0.00055570884
-0.0006046051
-0.00065172928
-0.00068068774
-0.00066223951
-0.00061283826
-0.00056166381
-0.00050869889
-0.00045394191
-0.00039740515
-0.00033911269
-0.00027806908
-0.00019239888
-8.3098388e-05
2.7904987e-05
0.00014054844
0.00025477071
0.00037051419
0.00048772682
0.00060636385
0.00072638931
0.00084777725
0.00097051279
0.0011076198
0.001301485
0.0015403278
0.0017831316
0.002030153
0.0022816769
0.0025380182
0.0027995236
0.0030665734
0.0033669564
0.0037051765
0.0040546792
0.0044122507
0.0047784516
0.0051538881
0.0055392154
0.0059442977
0.0064380168
0.0070151629
0.0076121858
0.008230669
0.0088723491
0.0095543341
0.01031588
0.011145304
0.012009392
0.012911044
0.013868407
0.0149169
0.016045803
0.01722792
0.018467898
0.019785836
0.021184362
0.02265106
0.024191499
0.024115781
0.022453589
0.020877092
0.019406466
0.018090517
0.016892609
0.015748852
0.014655005
0.013642799
0.01271315
0.011827106
0.010977291
0.010160939
0.0094176
0.00875049
0.0081143368
0.0075008636
0.0069083774
0.0063367625
0.00585856
0.0054683829
0.0050883526
0.0047177942
0.0043560835
0.0040026428
0.0036569379
0.0033221803
0.0030191234
0.0027435794
0.0024738467
0.0022095139
0.0019502082
0.0016955907
0.001445356
0.00120063
0.0010173849
0.00089278842
0.00076947855
0.00064747126
0.00052679499
0.00040748992
0.0002896068
0.00017320569
5.8354285e-05
-5.487392e-05
-0.00016640175
-0.00027372197
-0.00035556933
-0.00041441212
-0.00047144024
-0.00052659946
-0.00057984662
-0.0006311521
-0.00068050198
-0.00072789999
-0.00075694976
-0.00073841
-0.00068873496
-0.00063710693
-0.00058351355
-0.00052795995
-0.00047046676
-0.00041106789
-0.00034877891
-0.00026173632
-0.00015095053
-3.8361178e-05
7.595529e-05
0.00019192392
0.00030947357
0.00042853901
0.00054906279
0.0006709969
0.00079430413
0.00091895912
0.0010579765
0.0012537335
0.0014944401
0.0017390753
0.0019878896
0.0022411631
0.0024992065
0.0027623631
0.0030310105
0.0033329354
0.0036726393
0.004023568
0.0043825072
0.0047500176
0.0051267058
0.0055132278
0.0059194484
0.0064142493
0.0069924216
0.0075904186
0.0082098252
0.0088523795
0.0095351913
0.010297517
0.011127677
0.011992458
0.012894763
0.013852741
0.01490181
0.016031253
0.017213877
0.01845433
0.019772711
0.021171652
0.022638736
0.024179535
0.024102969
0.022440394
0.020863486
0.019392418
0.018075994
0.016877577
0.015733276
0.014638849
0.013626025
0.012695718
0.011808974
0.010958416
0.010141276
0.009397101
0.0087291052
0.0080920154
0.0074775532
0.0068840237
0.0063113094
0.0058319479
0.0054405513
0.0050592414
0.0046873423
0.0043242289
0.0039693233
0.0036220911
0.0032857442
0.002981036
0.0027037812
0.0024322802
0.0021661247
0.0019049452
0.0016484077
0.0013962117
0.0011494896
0.00096421745
0.00083757521
0.00071220957
0.00058814669
0.00046542623
0.00034410042
0.00022423292
0.00010589737
-1.0824417e-05
-0.00012584445
-0.00023907089
-0.00034798202
-0.00043129932
-0.00049147594
-0.00054968909
-0.0006058727
-0.00065997309
-0.00071195169
-0.00076178741
-0.0008094787
-0.00083862625
-0.00081998846
-0.00077002019
-0.00071790637
-0.00066363992
-0.00060723313
-0.00054871561
-0.00048813175
-0.00042450899
-0.00033599657
-0.00022362001
-0.00010933208
6.7761904e-06
0.00012461518
0.00024409925
0.00036514903
0.00048769352
0.0006116718
0.00073703458
0.00086374531
0.0010048086
0.0012025918
0.0014452946
0.0016918911
0.0019426257
0.002197773
0.0024576393
0.0027225643
0.0029929228
0.0032964991
0.0036377922
0.003990248
0.004350652
0.004719565
0.0050975937
0.0054853951
0.0058928349
0.0063887944
0.0069680659
0.0075671061
0.0081875015
0.0088309923
0.0095146895
0.010277851
0.011108798
0.011974322
0.012877326
0.013835962
0.014885649
0.01601567
0.017198837
0.018439798
0.019758655
0.021158039
0.022625537
0.024166721
0.024089247
0.022426263
0.020848914
0.019377373
0.01806044
0.016861477
0.015716594
0.014621546
0.01360806
0.012677048
0.011789554
0.010938201
0.010120217
0.0093751466
0.0087062021
0.0080681093
0.0074525878
0.0068579409
0.0062840493
0.0058034464
0.0054107438
0.0050280634
0.0046547283
0.0042901127
0.0039336382
0.0035847702
0.0032467211
0.0029402445
0.0026611573
0.0023877624
0.0021196547
0.0018564686
0.0015978746
0.0013435782
0.0010947182
0.00090727505
0.00077844183
0.00065087446
0.00052461005
0.00039970024
0.00027621021
0.00015421743
3.3810079e-05
-8.4914891e-05
-0.00020185397
-0.00031689963
-0.00042751465
-0.00051240627
-0.00057401143
-0.00063349375
-0.00069077448
-0.00074578869
-0.00079848822
-0.00084884426
-0.00089684965
-0.00092610194
-0.00090735916
-0.00085707684
-0.00080444274
-0.00074945541
-0.00069213486
-0.00063252026
-0.00057066728
-0.00050561601
-0.00041552942
-0.00030144913
-0.000185342
-6.7314709e-05
5.2527437e-05
0.00017408328
0.00029725832
0.00042196699
0.00054813459
0.00067569887
0.0008046113
0.00094786586
0.001147819
0.0013926598
0.0016413569
0.001894148
0.0021513021
0.0024131208
0.0026799398
0.0029521309
0.0032574758
0.0036004709
0.0039545623
0.0043165352
0.0046869502
0.0050664148
0.0054555864
0.0058643318
0.0063615322
0.006941981
0.0075421384
0.008163593
0.0088080866
0.0094927321
0.010256788
0.011088579
0.011954898
0.012858652
0.013817992
0.01486834
0.015998981
0.017182729
0.018424235
0.0197436
0.021143459
0.022611401
0.024152998
0.024074551
0.022411128
0.020833307
0.01936126
0.018043781
0.016844235
0.015698727
0.014603015
0.01358882
0.012657052
0.011768756
0.01091655
0.010097662
0.0093516334
0.0086816728
0.0080425057
0.0074258497
0.0068300061
0.0062548535
0.0057729211
0.0053788197
0.0049946715
0.0046197986
0.0042535741
0.0038954192
0.0035447993
0.0032049271
0.0028965565
0.0026155067
0.0023400836
0.0020698851
0.0018045498
0.0015437533
0.0012872073
0.0010360576
0.00084628928
0.0007151095
0.00058518404
0.00045656176
0.00032930713
0.00020349919
7.9230213e-05
-4.3396062e-05
-0.00016426647
-0.00028326089
-0.00040025496
-0.00051269486
-0.00059927259
-0.00066240774
-0.00072324936
-0.00078170513
-0.00083769806
-0.0008911697
-0.00094208303
-0.00099042483
-0.0010197893
-0.0010009341
-0.00095031538
-0.00089712406
-0.00084136466
-0.00078306545
-0.00072227586
-0.00065906364
-0.00059248242
-0.00050070985
-0.00038480486
-0.00026674935
-0.00014666675
-2.4679188e-05
9.9095545e-05
0.00022454676
0.0003515733
0.00048008569
0.0006100078
0.00074127828
0.00088687968
0.001089157
0.0013362874
0.0015872343
0.0018422281
0.0021015316
0.0023654412
0.0026342887
0.0029084425
0.0032156815
0.0035604996
0.0039163428
0.0042799958
0.0046520196
0.0050330219
0.0054236611
0.0058338049
0.0063323343
0.0069140439
0.0075153979
0.0081379868
0.0087835545
0.0094692156
0.01023423
0.011066924
0.011934095
0.012838651
0.013798746
0.014849801
0.015981107
0.017165477
0.018407566
0.019727476
0.021127844
0.022596261
0.0241383
0.024058812
0.022394919
0.020816592
0.019344002
0.01802594
0.016825767