/*--------------------------------*- C++ -*----------------------------------*\
| =========                 |                                                 |
| \\      /  F ield         | OpenFOAM: The Open Source CFD Toolbox           |
|  \\    /   O peration     | Version:  v2006                                 |
|   \\  /    A nd           | Website:  www.openfoam.com                      |
|    \\/     M anipulation  |                                                 |
\*---------------------------------------------------------------------------*/
FoamFile
{
    version     2.0;
    format      ascii;
    class       volScalarField;
    location    "4000";
    object      Cy;
}
// * * * * * * * * * * * * * * * * * * * * * * * * * * * * * * * * * * * * * //

dimensions      [0 1 0 0 0 0 0];


internalField   nonuniform List<scalar> 
103740
(
0.031066562
0.030590628
0.030139363
0.029649038
0.028994733
0.028245258
0.027530003
0.026846316
0.026143026
0.025415523
0.024713616
0.024040953
0.023395338
0.022729748
0.022038407
0.021366934
0.020720271
0.020096625
0.0194933
0.018853645
0.018179041
0.017523534
0.016885937
0.016265151
0.015660152
0.015069988
0.014491884
0.013915064
0.013342185
0.012783342
0.012237563
0.011703949
0.011181656
0.010669895
0.010167462
0.0096545744
0.0091314864
0.0086152549
0.0081054725
0.0076017485
0.0071037085
0.0066109925
0.006123254
0.0056401593
0.0051613861
0.0046866227
0.0042151889
0.0037439528
0.0032739814
0.0028080063
0.002345431
0.0018856759
0.0014281753
0.00097237501
0.00051772881
6.3600866e-05
-0.00039045247
-0.00084470258
-0.0013000603
-0.0017571282
-0.0022165181
-0.0026788545
-0.003144778
-0.0036148003
-0.0040858668
-0.004557305
-0.0050325353
-0.0055118667
-0.0059956186
-0.0064841217
-0.0069777186
-0.007476765
-0.0079816308
-0.0084927015
-0.0090103788
-0.0095311117
-0.01004267
-0.010549653
-0.011066357
-0.011593494
-0.012131822
-0.012682148
-0.013245338
-0.013822318
-0.014400092
-0.014976121
-0.015564377
-0.016167671
-0.016786984
-0.017423369
-0.018077962
-0.018745285
-0.019377212
-0.019980286
-0.020604981
-0.021252964
-0.021926063
-0.022609601
-0.023263621
-0.023903708
-0.024571063
-0.025267931
-0.025974549
-0.026643476
-0.027295127
-0.02797781
-0.028694209
-0.029415885
-0.030141719
-0.030902495
-0.031701739
0.031093266
0.030617315
0.030166029
0.029675682
0.029021353
0.028271852
0.027556568
0.026872847
0.026169519
0.025441975
0.024740021
0.024067304
0.02342163
0.022755974
0.02206456
0.021393005
0.020746251
0.020122503
0.019519065
0.018879284
0.018204542
0.017548881
0.016911114
0.016290139
0.015684932
0.015094538
0.014516181
0.013939083
0.013365899
0.01280672
0.012260575
0.011726561
0.011203831
0.010691596
0.010188647
0.0096752034
0.0091515138
0.0086346346
0.0081241566
0.007619688
0.0071208534
0.006627292
0.0061386574
0.0056546161
0.0051748464
0.0046990382
0.004226513
0.0037541418
0.003282994
0.0028158054
0.0023519834
0.001890953
0.001432154
0.00097503736
0.00051906276
6.3600355e-05
-0.00039178745
-0.00084736594
-0.00130404
-0.0017624064
-0.0022230715
-0.0026866546
-0.0031537917
-0.0036249902
-0.004097192
-0.0045697216
-0.0050459966
-0.0055263244
-0.006011023
-0.0065004223
-0.0069948644
-0.0074947054
-0.0080003159
-0.0085120821
-0.0090304072
-0.0095517415
-0.010063857
-0.010571354
-0.011088533
-0.011616107
-0.012154835
-0.012705527
-0.013269052
-0.013846338
-0.01442439
-0.015000672
-0.015589158
-0.01619266
-0.016812161
-0.017448717
-0.018103464
-0.018770925
-0.019402977
-0.020006164
-0.020630961
-0.021279036
-0.021952217
-0.022635828
-0.023289914
-0.023930061
-0.024597468
-0.025294383
-0.026001044
-0.026670009
-0.027321694
-0.028004406
-0.028720831
-0.02944253
-0.030168385
-0.030929179
-0.031728438
0.031121866
0.030645896
0.030194588
0.029704217
0.029049862
0.028300334
0.027585018
0.026901261
0.026197893
0.025470304
0.0247683
0.024095526
0.023449788
0.022784062
0.022092569
0.021420926
0.020774074
0.020150217
0.019546658
0.018906744
0.018231853
0.017576027
0.016938078
0.016316901
0.015711471
0.015120831
0.014542203
0.013964807
0.013391296
0.012831758
0.012285221
0.011750778
0.011227581
0.010714837
0.010211337
0.0096972969
0.009172963
0.00865539
0.0081441671
0.0076389011
0.0071392153
0.0066447487
0.0061551544
0.0056700991
0.0051892623
0.0047123351
0.0042386411
0.003765054
0.0032926465
0.0028241581
0.0023590008
0.0018966048
0.0014364151
0.0009778887
0.00052049142
6.3599809e-05
-0.0003932172
-0.00085021839
-0.0013083022
-0.0017680593
-0.0022300901
-0.0026950084
-0.0031634452
-0.0036359036
-0.0041093212
-0.0045830196
-0.0050604136
-0.0055418086
-0.0060275211
-0.00651788
-0.0070132275
-0.0075139195
-0.0080203275
-0.0085328385
-0.0090518574
-0.0095738358
-0.010086547
-0.010594596
-0.011112283
-0.011640324
-0.012179481
-0.012730566
-0.01329445
-0.013872063
-0.014450412
-0.015026965
-0.015615698
-0.016219423
-0.016839126
-0.017475864
-0.018130776
-0.018798386
-0.019430571
-0.02003388
-0.020658786
-0.021306958
-0.021980227
-0.022663917
-0.023318074
-0.023958284
-0.024625748
-0.025322714
-0.026029419
-0.026698425
-0.027350146
-0.02803289
-0.028749344
-0.029471068
-0.030196944
-0.030957757
-0.031757033
0.031152498
0.030676507
0.030225176
0.02973478
0.029080397
0.028330839
0.027615489
0.026931694
0.026228283
0.025500646
0.024798587
0.024125753
0.023479947
0.022814145
0.022122568
0.021450831
0.020803875
0.020179901
0.019576212
0.018936154
0.018261104
0.017605102
0.016966957
0.016345564
0.015739895
0.015148991
0.014570073
0.013992359
0.013418497
0.012858575
0.012311617
0.011776715
0.011253017
0.010739729
0.010235638
0.0097209599
0.0091959359
0.0086776198
0.008165599
0.0076594789
0.0071588817
0.0066634454
0.0061728232
0.005686682
0.0052047023
0.0047265766
0.0042516307
0.0037767414
0.0033029846
0.0028331041
0.0023665168
0.0019026581
0.001440979
0.0009809426
0.00052202157
6.3599224e-05
-0.00039474852
-0.00085327346
-0.0013128672
-0.0017741138
-0.0022376072
-0.0027039556
-0.0031737845
-0.0036475922
-0.004122312
-0.0045972622
-0.0050758548
-0.0055583927
-0.006045191
-0.0065365779
-0.007032895
-0.0075344985
-0.0080417605
-0.0085550695
-0.0090748314
-0.0095974996
-0.01011085
-0.010619489
-0.011137721
-0.011666262
-0.012205878
-0.012757384
-0.013321652
-0.013899615
-0.014478283
-0.015055127
-0.015644123
-0.016248087
-0.016868006
-0.01750494
-0.018160028
-0.018827797
-0.019460126
-0.020063565
-0.020688587
-0.021336864
-0.022010227
-0.022694001
-0.023348234
-0.023988512
-0.024656037
-0.025353057
-0.02605981
-0.026728859
-0.027380619
-0.028063398
-0.028779882
-0.029501632
-0.030227532
-0.030988366
-0.031787659
0.031185305
0.030709293
0.030257937
0.029767513
0.029113101
0.02836351
0.027648124
0.026964288
0.026260831
0.025533142
0.024831026
0.024158127
0.023512248
0.022846365
0.022154698
0.02148286
0.020835791
0.020211692
0.019607865
0.018967653
0.018292433
0.017636241
0.016997887
0.016376263
0.015770338
0.015179152
0.014599923
0.014021867
0.013447629
0.012887296
0.012339888
0.011804494
0.01128026
0.010766389
0.010261665
0.0097463034
0.0092205403
0.0087014284
0.0081885531
0.0076815183
0.0071799448
0.0066834701
0.0061917469
0.0057044427
0.0052212388
0.0047418295
0.0042655429
0.0037892589
0.003314057
0.0028426856
0.0023745666
0.0019091413
0.0014458669
0.0009842134
0.00052366039
6.3598597e-05
-0.00039638859
-0.00085654552
-0.0013177565
-0.0017805982
-0.0022456583
-0.0027135383
-0.0031848582
-0.0036601109
-0.0041362254
-0.0046125164
-0.0050923926
-0.0055761546
-0.006064116
-0.0065566038
-0.0070539593
-0.0075565391
-0.0080647159
-0.0085788793
-0.009099437
-0.009622844
-0.010136878
-0.010646151
-0.011164965
-0.011694043
-0.01223415
-0.012786106
-0.013350786
-0.013929124
-0.014508134
-0.015085288
-0.015674566
-0.016278787
-0.016898937
-0.01753608
-0.018191358
-0.018859297
-0.01949178
-0.020095358
-0.020720505
-0.021368894
-0.022042358
-0.022726222
-0.023380536
-0.024020887
-0.024688477
-0.025385554
-0.02609236
-0.026761455
-0.027413257
-0.028096072
-0.028812588
-0.029534367
-0.030260293
-0.031021148
-0.03182046
0.031220442
0.030744406
0.030293023
0.02980257
0.029148127
0.028398502
0.027683077
0.026999196
0.02629569
0.025567946
0.024865768
0.024192799
0.023546842
0.022880872
0.022189109
0.021517164
0.020869974
0.020245742
0.019641765
0.019001389
0.018325986
0.017669592
0.017031014
0.016409141
0.015802943
0.015211454
0.014631892
0.01405347
0.013478831
0.012918057
0.012370166
0.011834245
0.011309437
0.010794942
0.010289541
0.0097734467
0.009246892
0.0087269278
0.0082131373
0.0077051227
0.0072025036
0.0067049167
0.0062120144
0.0057234646
0.0052389497
0.0047581656
0.0042804431
0.0038026653
0.0033259157
0.0028529474
0.0023831881
0.0019160849
0.001451102
0.00098771646
0.00052541559
6.3597925e-05
-0.00039814514
-0.00086004993
-0.0013229929
-0.0017875432
-0.0022542811
-0.0027238016
-0.0031967182
-0.0036735187
-0.0041511269
-0.0046288538
-0.0051101048
-0.0055951779
-0.0060843849
-0.0065780517
-0.0070765195
-0.0075801448
-0.0080893013
-0.0086043799
-0.00912579
-0.0096499883
-0.010164755
-0.010674705
-0.011194144
-0.011723795
-0.01226443
-0.012816868
-0.013381988
-0.013960729
-0.014540104
-0.015117592
-0.015707172
-0.016311666
-0.016932065
-0.017569432
-0.018224912
-0.018893034
-0.019525681
-0.020129408
-0.02075469
-0.021403199
-0.02207677
-0.022760731
-0.023415132
-0.024055561
-0.024723221
-0.02542036
-0.026127221
-0.026796366
-0.027448212
-0.028131066
-0.028847617
-0.029569427
-0.030295379
-0.031056258
-0.03185559
0.031258074
0.030782012
0.030330601
0.029840116
0.02918564
0.028435978
0.027720511
0.027036583
0.026333024
0.025605221
0.024902976
0.024229933
0.023583893
0.02291783
0.022225963
0.021553902
0.020906585
0.020282208
0.019678072
0.01903752
0.018361921
0.017705311
0.017066493
0.016444355
0.015837862
0.01524605
0.014666131
0.014087318
0.013512248
0.012951002
0.012402595
0.011866109
0.011340687
0.010825522
0.010319396
0.0098025171
0.0092751147
0.0087542376
0.008239467
0.0077304031
0.0072266642
0.0067278861
0.006233721
0.0057438372
0.005257918
0.0047756615
0.0042964011
0.0038170236
0.0033386163
0.0028639379
0.0023924217
0.0019235215
0.0014567088
0.00099146826
0.00052729541
6.3597207e-05
-0.0004000264
-0.00086380317
-0.0013286011
-0.0017949813
-0.0022635161
-0.0027347935
-0.0032094204
-0.0036878784
-0.0041670864
-0.0046463513
-0.0051290746
-0.0056155519
-0.0061060929
-0.0066010226
-0.0071006815
-0.0076054266
-0.0081156324
-0.0086316911
-0.009154014
-0.0096790598
-0.010194611
-0.010705287
-0.011225394
-0.011755661
-0.012296859
-0.012849814
-0.013415406
-0.013994577
-0.014574345
-0.015152188
-0.015742093
-0.01634688
-0.016967545
-0.017605152
-0.018260849
-0.018929166
-0.01956199
-0.020165876
-0.020791301
-0.021439939
-0.022113626
-0.02279769
-0.023452184
-0.024092696
-0.024760431
-0.025457637
-0.026164557
-0.026833755
-0.027485649
-0.028168545
-0.028885133
-0.029606976
-0.030332957
-0.031093861
-0.031893215
0.031298377
0.030822288
0.030370847
0.029880328
0.029225815
0.028476114
0.027760603
0.027076624
0.026373008
0.025645142
0.024942826
0.024269704
0.023623573
0.022957411
0.022265434
0.021593249
0.020945794
0.020321264
0.019716957
0.019076215
0.018400408
0.017743565
0.01710449
0.016482067
0.015875261
0.015283102
0.014702801
0.014123568
0.013548037
0.012986285
0.012437325
0.011900235
0.011374154
0.010858273
0.01035137
0.0098336512
0.0093053409
0.0087834861
0.0082676657
0.007757478
0.0072525399
0.006752486
0.0062569685
0.0057656559
0.0052782329
0.0047943995
0.004313492
0.0038324012
0.0033522186
0.0028757086
0.0024023107
0.0019314861
0.0014627135
0.00099548638
0.00052930868
6.3596436e-05
-0.00040204121
-0.00086782284
-0.0013346074
-0.0018029473
-0.0022734068
-0.0027465657
-0.0032230242
-0.0037032575
-0.0041841789
-0.0046650908
-0.005149391
-0.0056373721
-0.0061293419
-0.006625624
-0.0071265586
-0.0076325031
-0.0081438326
-0.0086609411
-0.0091842416
-0.009710195
-0.010226587
-0.010738039
-0.011258863
-0.011789788
-0.012331591
-0.012885099
-0.013451196
-0.014030828
-0.014611015
-0.015189241
-0.015779492
-0.016384594
-0.017005543
-0.017643408
-0.018299336
-0.018967863
-0.019600876
-0.020204933
-0.020830511
-0.021479287
-0.022153098
-0.022837273
-0.023491866
-0.024132468
-0.024800283
-0.02549756
-0.026204543
-0.026873798
-0.027525743
-0.028208685
-0.028925313
-0.02964719
-0.030373202
-0.031134133
-0.03193351
0.031341541
0.030865424
0.030413949
0.029923394
0.029268843
0.0285191
0.02780354
0.027119507
0.026415831
0.025687897
0.024985505
0.024312297
0.023666071
0.022999802
0.022307706
0.021635389
0.020987786
0.020363092
0.019758602
0.019117658
0.018441627
0.017784535
0.017145184
0.016522457
0.015915314
0.015322784
0.014742074
0.014162391
0.013586366
0.013024073
0.012474521
0.011936784
0.011409997
0.010893349
0.010385613
0.0098669956
0.0093377128
0.008814811
0.0082978664
0.0077864751
0.0072802525
0.0067788323
0.0062818663
0.0057890236
0.00529999
0.0048144677
0.0043317963
0.0038488704
0.0033667865
0.0028883149
0.0024129018
0.001940016
0.0014691446
0.00099978977
0.00053146487
6.3595612e-05
-0.00040419906
-0.00087212788
-0.0013410402
-0.001811479
-0.0022839995
-0.0027591737
-0.0032375938
-0.0037197284
-0.0042024848
-0.0046851607
-0.0051711498
-0.0056607415
-0.0061542414
-0.006651972
-0.0071542729
-0.0076615018
-0.0081740349
-0.0086922675
-0.0092166151
-0.0097435405
-0.010260832
-0.010773117
-0.011294708
-0.011826338
-0.012368788
-0.012922889
-0.013489527
-0.014069653
-0.01465029
-0.015228924
-0.015819547
-0.016424986
-0.017046239
-0.017684379
-0.018340556
-0.019009307
-0.019642522
-0.020246762
-0.020872505
-0.021521429
-0.022195372
-0.022879665
-0.023534366
-0.024175063
-0.024842963
-0.025540317
-0.026247368
-0.026916684
-0.027568684
-0.028251674
-0.028968344
-0.029690259
-0.030416305
-0.031177265
-0.031976666
0.031387771
0.030911622
0.030460112
0.029969518
0.029314926
0.028565138
0.027849527
0.027165436
0.026461695
0.025733689
0.025031215
0.024357915
0.023711586
0.023045204
0.02235298
0.021680522
0.02103276
0.02040789
0.019803204
0.019162044
0.018485772
0.017828415
0.017188769
0.016565715
0.015958212
0.015365284
0.014784136
0.014203972
0.013627418
0.013064545
0.012514358
0.011975928
0.011448386
0.010930917
0.010422289
0.0099027078
0.0093723836
0.0088483603
0.0083302116
0.0078175314
0.0073099331
0.0068070496
0.0063085323
0.0058140507
0.0053232921
0.0048359611
0.0043514003
0.0038665092
0.003382389
0.0029018164
0.0024242451
0.0019491517
0.0014760324
0.0010043988
0.00053377419
6.3594728e-05
-0.00040651015
-0.00087673865
-0.0013479297
-0.0018206164
-0.0022953446
-0.002772677
-0.003253198
-0.003737369
-0.0042220906
-0.0047066559
-0.0051944537
-0.0056857703
-0.0061809091
-0.006680191
-0.0071839552
-0.0076925598
-0.0082063818
-0.0087258186
-0.0092512876
-0.0097792541
-0.010297509
-0.010810686
-0.011333098
-0.011865484
-0.012408627
-0.012963362
-0.01353058
-0.014111235
-0.014692353
-0.015271426
-0.015862446
-0.016468245
-0.017089825
-0.01772826
-0.018384703
-0.019053694
-0.019687126
-0.020291562
-0.020917481
-0.021566563
-0.022240647
-0.022925068
-0.023579883
-0.024220683
-0.024888675
-0.02558611
-0.026293234
-0.026962616
-0.027614674
-0.028297716
-0.029014431
-0.029736387
-0.030462468
-0.031223458
-0.032022886
0.031437283
0.030961101
0.030509553
0.030018918
0.029364281
0.028614445
0.027898779
0.027214626
0.026510815
0.025782731
0.025080171
0.024406773
0.023760334
0.023093829
0.02240147
0.021728859
0.021080928
0.020455869
0.019850973
0.019209582
0.018533053
0.01787541
0.017235448
0.016612045
0.016004155
0.015410802
0.014829185
0.014248505
0.013671385
0.013107891
0.012557024
0.012017852
0.011489501
0.010971151
0.010461569
0.0099409561
0.0094095164
0.0088842922
0.0083648539
0.007850793
0.0073417214
0.0068372707
0.0063370918
0.005840855
0.005348249
0.0048589808
0.0043723966
0.0038854006
0.0033990994
0.0029162767
0.0024363938
0.0019589362
0.0014834093
0.001009335
0.0005362475
6.3593782e-05
-0.00040898535
-0.00088167684
-0.0013553086
-0.0018304028
-0.0023074952
-0.0027871392
-0.0032699104
-0.0037562623
-0.0042430888
-0.0047296775
-0.0052194125
-0.0057125766
-0.0062094706
-0.0067104139
-0.0072157454
-0.0077258233
-0.0082410259
-0.0087617522
-0.0092884222
-0.0098175037
-0.010336791
-0.010850923
-0.011374215
-0.01190741
-0.012451295
-0.013006709
-0.013574549
-0.01415577
-0.014737403
-0.015316945
-0.015908391
-0.016514576
-0.017136506
-0.017775257
-0.018431985
-0.019101233
-0.019734897
-0.020339543
-0.020965651
-0.021614902
-0.022289138
-0.022973695
-0.023628632
-0.024269543
-0.024937633
-0.025635155
-0.026342357
-0.027011809
-0.027663929
-0.028347027
-0.029063791
-0.02978579
-0.030511909
-0.031272933
-0.032072389
0.03149031
0.031014092
0.030562504
0.030071824
0.029417141
0.028667253
0.027951528
0.027267308
0.026563423
0.025835256
0.025132602
0.024459099
0.023812542
0.023145906
0.022453401
0.021780628
0.021132516
0.020507255
0.019902134
0.019260494
0.01858369
0.017925742
0.017285442
0.016661665
0.016053361
0.015459551
0.014877432
0.0142962
0.013718473
0.013154314
0.012602719
0.012062752
0.011533535
0.011014243
0.010503638
0.0099819199
0.0094492857
0.0089227751
0.0084019556
0.0078864162
0.0073757667
0.0068696374
0.0063676791
0.0058695625
0.0053749778
0.0048836348
0.0043948835
0.0039056333
0.0034169963
0.0029317637
0.0024494051
0.0019694153
0.00149131
0.0010146218
0.00053889641
6.3592769e-05
-0.00041163629
-0.00088696563
-0.0013632113
-0.001840884
-0.0023205086
-0.0028026282
-0.0032878093
-0.003776497
-0.0042655778
-0.0047543335
-0.0052461434
-0.0057412861
-0.0062400599
-0.0067427827
-0.0072497926
-0.0077614484
-0.0082781296
-0.008800237
-0.0093281933
-0.009858469
-0.010378862
-0.010894016
-0.011418251
-0.011952312
-0.012496992
-0.013053134
-0.013621639
-0.014203466
-0.014785651
-0.015365696
-0.015957598
-0.016564197
-0.017186501
-0.01782559
-0.018482624
-0.019152148
-0.01978606
-0.020390931
-0.02101724
-0.021666673
-0.022341072
-0.023025774
-0.023680843
-0.024321871
-0.024990066
-0.025687682
-0.026394967
-0.027064494
-0.027716682
-0.028399839
-0.029116656
-0.0298387
-0.03056486
-0.031325919
-0.032125406
0.031547101
0.031070846
0.030619215
0.030128487
0.029473753
0.028723809
0.028008022
0.02732373
0.026619765
0.02589151
0.025188755
0.024515139
0.023868457
0.023201681
0.02250902
0.021836073
0.021187766
0.020562288
0.019956927
0.019315021
0.018637922
0.017979647
0.017338985
0.016714806
0.01610606
0.015511761
0.014929104
0.014347281
0.013768904
0.013204033
0.012651659
0.01211084
0.011580694
0.011060393
0.010548693
0.010025792
0.0094918782
0.0089639899
0.0084416913
0.0079245684
0.0074122289
0.0069043019
0.0064004378
0.0059003079
0.0054036042
0.0049100391
0.0044189669
0.0039273023
0.0034361637
0.0029483501
0.0024633401
0.0019806384
0.0014997715
0.0010202839
0.00054173338
6.3591684e-05
-0.00041447544
-0.0008926299
-0.001371675
-0.0018521093
-0.0023344458
-0.0028192169
-0.0033069789
-0.0037981682
-0.0042896633
-0.00478074
-0.0052747719
-0.0057720337
-0.0062728208
-0.0067774493
-0.007286257
-0.0077996027
-0.0083178674
-0.008841454
-0.0093707879
-0.0099023425
-0.01042392
-0.010940169
-0.011465413
-0.012000402
-0.012545933
-0.013102855
-0.013672072
-0.014254549
-0.014837325
-0.015417908
-0.016010299
-0.016617341
-0.017240045
-0.017879497
-0.018536858
-0.019206676
-0.019840855
-0.020445966
-0.021072492
-0.021722119
-0.022396692
-0.023081551
-0.023736759
-0.024377914
-0.025046222
-0.025743938
-0.026451312
-0.02712092
-0.02777318
-0.0284564
-0.029173273
-0.029895367
-0.030621571
-0.031382667
-0.032182187
0.031607925
0.031131628
0.030679951
0.030189172
0.029534384
0.028784381
0.028068526
0.027384158
0.026680108
0.025951757
0.025248895
0.024575159
0.023928341
0.023261415
0.022568587
0.021895453
0.021246939
0.020621229
0.02001561
0.01937342
0.018696005
0.018037379
0.017396329
0.016771721
0.016162501
0.015567679
0.014984445
0.014401988
0.013822916
0.013257282
0.012704073
0.012162342
0.011631203
0.01110982
0.010596948
0.010072779
0.0095374948
0.0090081311
0.0084842483
0.0079654293
0.0074512799
0.0069414277
0.0064355225
0.0059332363
0.0054342631
0.0049383182
0.0044447602
0.0039505099
0.003456692
0.0029661142
0.0024782646
0.0019926584
0.0015088339
0.001026348
0.00054477178
6.3590522e-05
-0.00041751617
-0.00089869634
-0.0013807397
-0.0018641316
-0.0023493726
-0.0028369833
-0.0033275096
-0.0038213781
-0.004315459
-0.0048090215
-0.0053054331
-0.0058049645
-0.0063079077
-0.0068145774
-0.0073253103
-0.0078404659
-0.0083604266
-0.0088855974
-0.0094164067
-0.0099493311
-0.010472176
-0.010989598
-0.011515923
-0.012051906
-0.012598349
-0.013156105
-0.013726085
-0.014309258
-0.014892668
-0.015473827
-0.016066741
-0.016674257
-0.017297391
-0.017937231
-0.018594942
-0.019265076
-0.01989954
-0.020504909
-0.021131667
-0.021781502
-0.022456262
-0.023141287
-0.023796646
-0.024437936
-0.025106364
-0.025804188
-0.026511658
-0.027181351
-0.027833688
-0.028516977
-0.029233909
-0.029956057
-0.030682307
-0.031443445
-0.032242999
0.031673067
0.031196727
0.030745001
0.030254167
0.029599321
0.028849255
0.028133327
0.027448877
0.026744735
0.026016282
0.025313306
0.02463944
0.023992478
0.023325391
0.022632384
0.021959051
0.021310313
0.020684355
0.02007846
0.019435965
0.018758212
0.018099211
0.017457745
0.016832677
0.016222949
0.015627567
0.015043716
0.014460581
0.013880763
0.013314312
0.012760208
0.012217502
0.011685297
0.011162758
0.010648629
0.010123102
0.0095863507
0.0090554068
0.0085298273
0.008009192
0.007493104
0.0069811898
0.0064730986
0.0059685031
0.0054670991
0.0049686054
0.0044723852
0.0039753655
0.0034786782
0.0029851398
0.0024942488
0.0020055319
0.0015185398
0.0010328427
0.00054802595
6.3589277e-05
-0.00042077282
-0.00090519358
-0.0013904481
-0.0018770077
-0.0023653594
-0.0028560115
-0.0033494982
-0.0038462362
-0.0043430865
-0.0048393112
-0.0053382717
-0.0058402337
-0.0063454863
-0.006854342
-0.0073671369
-0.007884231
-0.008406008
-0.0089328755
-0.0094652649
-0.0099996563
-0.01052386
-0.011042538
-0.01157002
-0.012107067
-0.012654487
-0.013213138
-0.013783934
-0.014367852
-0.01495194
-0.015533716
-0.016127191
-0.016735215
-0.017358809
-0.017999064
-0.018657151
-0.019327624
-0.019962392
-0.020568037
-0.021195044
-0.021845101
-0.022520061
-0.023205265
-0.023860786
-0.02450222
-0.025170778
-0.025868716
-0.026576289
-0.027246074
-0.027898494
-0.028581855
-0.029298852
-0.030021056
-0.030747356
-0.031508537
-0.032308129
0.031742836
0.031266449
0.030814669
0.030323777
0.029668868
0.028918734
0.028202729
0.027518192
0.026813952
0.026085389
0.02538229
0.024708286
0.024061169
0.02339391
0.022700711
0.022027164
0.021378187
0.020751964
0.020145773
0.019502951
0.018824836
0.018165433
0.017523522
0.016897962
0.01628769
0.015691707
0.015107195
0.014523334
0.013942718
0.013375392
0.012820331
0.012276578
0.011743233
0.011219454
0.010703979
0.010176999
0.0096386758
0.0091060395
0.0085786428
0.0080560621
0.0075378981
0.0070237754
0.0065133429
0.0060062741
0.0055022668
0.0050010433
0.0045019719
0.0040019861
0.0035022255
0.0030055164
0.0025113682
0.0020193196
0.0015289349
0.0010397987
0.00055151119
6.3587944e-05
-0.00042426074
-0.00091215219
-0.0014008459
-0.001890798
-0.0023824814
-0.0028763908
-0.0033730483
-0.0038728595
-0.0043726758
-0.0048717518
-0.0053734421
-0.0058780074
-0.0063857333
-0.0068969302
-0.0074119335
-0.0079311037
-0.0084548261
-0.0089835107
-0.0095175926
-0.010053555
-0.010579213
-0.011099236
-0.011627959
-0.012166146
-0.012714611
-0.01327422
-0.013845891
-0.014430607
-0.015015421
-0.015597859
-0.016191934
-0.016800502
-0.017424588
-0.018065289
-0.018723777
-0.019394612
-0.020029707
-0.020635648
-0.021262921
-0.021913217
-0.02258839
-0.023273787
-0.023929479
-0.024571069
-0.025239765
-0.025937826
-0.026645509
-0.027315393
-0.027967901
-0.02865134
-0.029368406
-0.030090671
-0.030817025
-0.031578252
-0.032377884
0.031817557
0.03134112
0.030889283
0.030398329
0.029743354
0.028993146
0.028277059
0.027592427
0.026888082
0.026159403
0.025456171
0.02478202
0.024134737
0.023467293
0.022773889
0.022100113
0.021450881
0.020824373
0.020217865
0.019574694
0.01889619
0.018236357
0.017593969
0.016967882
0.016357027
0.015760401
0.015175181
0.014590542
0.014009071
0.013440808
0.012884721
0.012339848
0.011805283
0.011280175
0.01076326
0.010234722
0.009694716
0.0091602672
0.0086309242
0.00810626
0.0075858725
0.0070693846
0.0065564446
0.0060467269
0.0055399314
0.0050357843
0.0045336591
0.0040304968
0.0035274447
0.0030273398
0.002529703
0.0020340862
0.0015400681
0.0010472485
0.00055524389
6.3586516e-05
-0.0004279963
-0.00091960487
-0.0014119819
-0.0019055675
-0.0024008191
-0.002898217
-0.0033982704
-0.0039013731
-0.0044043659
-0.0049064957
-0.0054111096
-0.0059184631
-0.0064288379
-0.0069425422
-0.0074599108
-0.0079813044
-0.0085071102
-0.0090377411
-0.0095736354
-0.010111281
-0.010638497
-0.011159961
-0.011690011
-0.012229419
-0.012779004
-0.013339638
-0.013912247
-0.014497818
-0.015083409
-0.015666555
-0.016261273
-0.016870424
-0.017495037
-0.018136215
-0.018795134
-0.019466356
-0.020101802
-0.02070806
-0.021335617
-0.021986168
-0.022661571
-0.023347173
-0.02400305
-0.024644806
-0.02531365
-0.026011843
-0.026719643
-0.027389633
-0.028042236
-0.028725759
-0.029442898
-0.030165228
-0.030891639
-0.031652916
-0.032452591
0.031897583
0.031421092
0.030969195
0.030478173
0.029823127
0.029072842
0.028356665
0.027671933
0.026967476
0.026238671
0.025535298
0.024860988
0.024213527
0.023545886
0.022852263
0.022178241
0.021528735
0.020901922
0.020295075
0.019651529
0.01897261
0.018312316
0.017669418
0.017042766
0.016431286
0.015833973
0.015247994
0.014662522
0.014080136
0.013510868
0.012953683
0.01240761
0.011871738
0.011345208
0.010826749
0.010296544
0.0097547348
0.0092183448
0.0086869174
0.0081600219
0.0076372529
0.0071182319
0.0066026064
0.0060900517
0.0055802702
0.0050729918
0.0045675962
0.0040610317
0.0035544545
0.0030507126
0.0025493395
0.0020499012
0.0015519917
0.0010552272
0.00055924161
6.3584987e-05
-0.00043199708
-0.00092758667
-0.0014239086
-0.0019213857
-0.0024204587
-0.0029215929
-0.0034252832
-0.003931911
-0.004438306
-0.0049437064
-0.0054514514
-0.005961791
-0.0064750027
-0.0069913926
-0.0075112942
-0.0080350692
-0.0085631064
-0.0090958216
-0.0096336571
-0.010173105
-0.010701989
-0.011224996
-0.011756468
-0.012297184
-0.012847969
-0.013409701
-0.013983314
-0.0145698
-0.015156225
-0.015740128
-0.016335535
-0.01694531
-0.017570488
-0.018212176
-0.018871556
-0.019543194
-0.020179015
-0.020785612
-0.021413473
-0.022064299
-0.022739947
-0.023425768
-0.024081844
-0.024723777
-0.02539278
-0.026091115
-0.02679904
-0.027469143
-0.028121847
-0.02880546
-0.029522678
-0.030245078
-0.030971551
-0.031732881
-0.032532602
0.031983291
0.031506743
0.03105478
0.030563686
0.029908564
0.029158195
0.028441923
0.027757083
0.027052506
0.026323567
0.025620043
0.024945563
0.024297912
0.023630059
0.0229362
0.022261915
0.021612117
0.020984977
0.020377767
0.01973382
0.019054456
0.018393668
0.017750223
0.017122966
0.016510818
0.015912767
0.015325977
0.014739612
0.014156245
0.013585903
0.013027542
0.012480184
0.011942911
0.011414857
0.010894746
0.010362755
0.0098190151
0.0092805459
0.0087468862
0.0082176008
0.0076922815
0.0071705474
0.0066520458
0.0061364527
0.005623473
0.0051128412
0.0046039428
0.0040937346
0.003583382
0.0030757449
0.0025703702
0.0020668392
0.0015647619
0.0010637724
0.00056352317
6.358335e-05
-0.00043628192
-0.0009361352
-0.0014366821
-0.0019383269
-0.0024414928
-0.0029466285
-0.003454214
-0.0039646172
-0.0044746559
-0.004983559
-0.0054946576
-0.0060081952
-0.0065244453
-0.0070437113
-0.007566326
-0.0080926514
-0.0086230783
-0.0091580258
-0.0096979404
-0.010239318
-0.010769989
-0.011294649
-0.011827644
-0.01236976
-0.01292183
-0.013484739
-0.014059426
-0.014646893
-0.01523421
-0.015818926
-0.016415069
-0.017025513
-0.017651296
-0.018293531
-0.018953404
-0.019625488
-0.020261709
-0.02086867
-0.021496858
-0.022147977
-0.022823887
-0.023509944
-0.024166232
-0.024808356
-0.025477528
-0.026176014
-0.026884075
-0.027554299
-0.028207112
-0.02889082
-0.029608123
-0.030330597
-0.031057136
-0.031818524
-0.032618293
0.032075084
0.031598474
0.031146442
0.030655271
0.030000067
0.029249609
0.028533235
0.02784828
0.027143573
0.02641449
0.025710805
0.025036143
0.024388288
0.023720209
0.023026098
0.022351532
0.021701419
0.021073929
0.02046633
0.019821954
0.019142113
0.018480797
0.017836766
0.017208861
0.016595998
0.015997157
0.015409497
0.014822176
0.01423776
0.013666266
0.013106645
0.012557911
0.012019137
0.011489453
0.010967572
0.010433668
0.0098878597
0.0093471639
0.0088111133
0.0082792684
0.0077512175
0.0072265778
0.0067049958
0.0061861485
0.0056697436
0.0051555202
0.0046428703
0.0041287597
0.0036143636
0.0031025547
0.0025928944
0.0020849799
0.0015784389
0.0010729245
0.00056810877
6.3581596e-05
-0.00044087103
-0.00094529076
-0.0014503627
-0.0019564711
-0.0024640205
-0.0029734419
-0.0034851992
-0.0039996459
-0.004513587
-0.0050262416
-0.0055409317
-0.0060578945
-0.0065773988
-0.0070997452
-0.0076252654
-0.0081543223
-0.0086873088
-0.0092246471
-0.0097667884
-0.010310233
-0.010842818
-0.011369248
-0.011903874
-0.01244749
-0.013000936
-0.013565105
-0.014140943
-0.01472946
-0.015317732
-0.015903318
-0.016500251
-0.01711141
-0.017737842
-0.018380662
-0.019041064
-0.019713624
-0.020350276
-0.020957625
-0.021586163
-0.022237596
-0.022913788
-0.023600097
-0.024256612
-0.02489894
-0.025568294
-0.026266942
-0.026975147
-0.027645501
-0.02829843
-0.028982241
-0.029699634
-0.030422188
-0.031148798
-0.031910247
-0.032710069
0.032173395
0.031696719
0.031244612
0.030753359
0.030098067
0.029347513
0.02863103
0.027945951
0.027241107
0.02651187
0.025808011
0.025133155
0.024485082
0.023816759
0.023122379
0.022447511
0.021797062
0.021169198
0.020561182
0.019916346
0.019235994
0.018574112
0.017929454
0.017300855
0.016687225
0.016087539
0.015498947
0.014910603
0.014325062
0.013752335
0.013191364
0.012641156
0.012100777
0.011569345
0.011045568
0.010509615
0.0099615928
0.0094185122
0.008879901
0.0083453148
0.0078143384
0.0072865867
0.0067617056
0.0062393731
0.0057192999
0.0052012298
0.0046845621
0.0041662719
0.0036475451
0.0031312683
0.002617018
0.0021044087
0.0015930871
0.0010827264
0.00057301999
6.3579717e-05
-0.00044578601
-0.00095509645
-0.0014650147