/*--------------------------------*- C++ -*----------------------------------*\
| =========                 |                                                 |
| \\      /  F ield         | OpenFOAM: The Open Source CFD Toolbox           |
|  \\    /   O peration     | Version:  v2006                                 |
|   \\  /    A nd           | Website:  www.openfoam.com                      |
|    \\/     M anipulation  |                                                 |
\*---------------------------------------------------------------------------*/
FoamFile
{
    version     2.0;
    format      ascii;
    class       volScalarField;
    location    "4000";
    object      k;
}
// * * * * * * * * * * * * * * * * * * * * * * * * * * * * * * * * * * * * * //

dimensions      [0 2 -2 0 0 0 0];


internalField   nonuniform List<scalar> 
103740
(
2.768137e-07
8.5711868e-08
6.5204313e-08
1.0410733e-06
1.3508277e-06
5.408998e-07
3.6534971e-07
5.4236447e-07
7.19923e-07
3.9181324e-07
3.78824e-07
2.0056381e-07
4.1532915e-07
5.5728469e-07
3.229921e-07
2.5044694e-07
2.4796278e-07
1.0364296e-07
3.5535187e-07
3.8370698e-07
1.4677914e-07
1.38843e-07
8.9163132e-08
8.0395995e-08
6.226056e-08
5.0423692e-08
5.2990449e-08
4.0202348e-08
2.2170489e-08
1.7254961e-08
1.0281697e-08
6.3446258e-09
3.0086756e-09
8.0244918e-10
8.9157153e-10
3.8147731e-09
7.8526897e-09
1.2213385e-08
1.9653396e-08
2.6901029e-08
3.8325705e-08
5.0169576e-08
6.8125217e-08
8.6710029e-08
1.1995331e-07
1.5100383e-07
2.5130425e-07
2.3164889e-07
1.9279385e-07
2.5430873e-07
2.8928666e-07
3.5527096e-07
4.390481e-07
5.5902658e-07
8.355455e-07
1.2215985e-06
6.8732265e-07
3.7899562e-07
5.1253907e-07
5.2755667e-07
5.8490534e-07
7.0941912e-07
7.5735504e-07
1.2061254e-06
9.730228e-07
5.3241435e-07
6.8506606e-07
6.8424692e-07
7.4289029e-07
8.1033244e-07
8.9085513e-07
1.0093892e-06
1.1572834e-06
1.4278709e-06
1.9025931e-06
3.1789872e-06
1.6373287e-06
3.916868e-07
7.5812412e-07
7.395115e-07
8.2051699e-07
1.0227543e-06
1.115019e-06
1.9125568e-06
1.6744625e-06
7.306686e-07
9.3665829e-07
1.0793524e-06
1.2554026e-06
1.7393499e-06
2.1611656e-06
5.1408188e-06
2.4714632e-06
5.4637796e-08
8.1884239e-07
8.0796008e-07
1.3382416e-06
2.3781628e-06
8.9049523e-07
1.4856108e-07
5.4530287e-07
7.434102e-07
1.3241788e-06
3.6688214e-07
3.924768e-08
1.6354099e-07
3.0098453e-07
2.4841533e-07
1.0305355e-07
2.0062224e-07
2.6289735e-07
5.2559171e-08
2.2808535e-08
1.8122669e-08
1.62493e-07
2.1164009e-07
9.190607e-08
6.290638e-08
8.8239074e-08
1.1499813e-07
6.6947808e-08
6.3098598e-08
3.7204455e-08
6.801451e-08
9.0359259e-08
5.5763482e-08
4.3983062e-08
4.3300477e-08
2.2584791e-08
5.9211672e-08
6.5458121e-08
2.8052636e-08
2.5783204e-08
1.8493064e-08
1.7058442e-08
1.4662281e-08
1.325272e-08
1.4267954e-08
1.3010431e-08
9.7579335e-09
9.2325291e-09
8.7045969e-09
8.8130573e-09
9.3611794e-09
1.0233892e-08
1.1141072e-08
1.0735873e-08
9.8242989e-09
1.0147502e-08
1.1355124e-08
1.2849016e-08
1.5102568e-08
1.761758e-08
2.1157948e-08
2.5125931e-08
3.1363385e-08
3.851074e-08
5.538936e-08
5.0611547e-08
4.4475982e-08
5.3967866e-08
6.0474758e-08
7.1904235e-08
8.6489415e-08
1.0736588e-07
1.5499528e-07
2.1076806e-07
1.2756277e-07
7.8092607e-08
9.5906766e-08
9.8924894e-08
1.0859584e-07
1.2774545e-07
1.382897e-07
2.0547484e-07
1.6757943e-07
1.0165376e-07
1.2178701e-07
1.2204822e-07
1.3072936e-07
1.4094935e-07
1.5326039e-07
1.7122621e-07
1.9415504e-07
2.3529692e-07
3.1167306e-07
4.9416892e-07
2.6700145e-07
8.1217027e-08
1.3221813e-07
1.3139428e-07
1.4525363e-07
1.7621346e-07
1.9483582e-07
3.1525187e-07
2.7546205e-07
1.3748463e-07
1.6806581e-07
1.9195567e-07
2.2320061e-07
2.9792263e-07
3.7844143e-07
8.1802341e-07
4.1256692e-07
5.5202272e-08
1.7299522e-07
1.8534044e-07
2.903936e-07
4.4534542e-07
2.0102715e-07
9.5474519e-08
1.7611359e-07
2.4458853e-07
3.2819945e-07
1.4511125e-07
1.0086141e-07
1.5538008e-07
2.0061985e-07
1.719659e-07
1.5586423e-07
1.8685784e-07
2.0320518e-07
1.1523485e-07
8.6760788e-08
6.946884e-08
1.4949902e-07
2.1100282e-07
1.3854863e-07
1.0035507e-07
1.0902649e-07
1.2990863e-07
1.0325174e-07
8.8706318e-08
7.587852e-08
8.7390037e-08
1.1121387e-07
8.960638e-08
7.5727491e-08
7.3962322e-08
6.5525733e-08
8.2377138e-08
1.0262203e-07
6.1071253e-08
5.3317315e-08
4.9011759e-08
4.7456297e-08
4.7986699e-08
4.9694273e-08
5.4977576e-08
5.8698296e-08
5.25705e-08
5.3738901e-08
5.7047275e-08
6.2100206e-08
6.9941727e-08
7.9166017e-08
8.6197194e-08
8.0221199e-08
6.8739775e-08
6.6525525e-08
6.7994488e-08
7.1921598e-08
7.7347222e-08
8.4362921e-08
9.2888877e-08
1.0409982e-07
1.1743749e-07
1.4038864e-07
1.6486612e-07
1.4754557e-07
1.4128857e-07
1.5060993e-07
1.6374285e-07
1.8282268e-07
2.0721701e-07
2.4200343e-07
3.2029271e-07
3.4421381e-07
2.476566e-07
2.0121627e-07
2.0266334e-07
2.0845664e-07
2.2293445e-07
2.4047813e-07
2.6824319e-07
3.2105984e-07
2.6251761e-07
2.2020276e-07
2.2062902e-07
2.2135948e-07
2.2714174e-07
2.3480682e-07
2.4454228e-07
2.5798074e-07
2.7724951e-07
3.0744699e-07
3.8926552e-07
4.7394684e-07
3.0403262e-07
2.1118677e-07
2.2624818e-07
2.3527775e-07
2.5640249e-07
2.8396306e-07
3.2385891e-07
4.2338503e-07
3.5593329e-07
2.8987229e-07
3.1148685e-07
3.4475263e-07
3.9803154e-07
4.6403052e-07
6.2446261e-07
9.0409137e-07
5.1521513e-07
3.6271267e-07
4.8216137e-07
5.8139653e-07
8.3664102e-07
9.3336092e-07
6.0552679e-07
5.8881558e-07
7.9579161e-07
1.1159759e-06
1.1463568e-06
7.413797e-07
7.4841589e-07
1.0417315e-06
1.2479466e-06
1.0803792e-06
1.1098096e-06
1.2477756e-06
1.3085524e-06
4.2511282e-07
3.3914998e-07
2.7223354e-07
4.4747205e-07
6.4799526e-07
4.791984e-07
3.5132752e-07
3.5972637e-07
4.1850571e-07
3.5961667e-07
3.0344607e-07
2.7718018e-07
2.9205515e-07
3.678028e-07
3.1520495e-07
2.69817e-07
2.6326149e-07
2.4967651e-07
2.8172457e-07
3.5960033e-07
2.2680987e-07
1.9609289e-07
1.857322e-07
1.8065648e-07
1.853445e-07
1.9389587e-07
2.149372e-07
2.320551e-07
2.1004661e-07
2.1522602e-07
2.2951113e-07
2.5037417e-07
2.8244268e-07
3.2002567e-07
3.4868259e-07
3.2518535e-07
2.7811123e-07
2.6797995e-07
2.7259666e-07
2.8723071e-07
3.0735041e-07
3.3380658e-07
3.6543451e-07
4.0775728e-07
4.5627918e-07
5.4361647e-07
6.279764e-07
5.6227299e-07
5.4166171e-07
5.6991246e-07
6.1704822e-07
6.8363084e-07
7.6858938e-07
8.8925587e-07
1.1585237e-06
1.2008845e-06
8.9176933e-07
7.5193877e-07
7.4020479e-07
7.6013426e-07
8.097717e-07
8.6169074e-07
9.6399548e-07
1.109765e-06
9.0900626e-07
8.027693e-07
7.8685767e-07
7.8894964e-07
8.041085e-07
8.2500515e-07
8.5220528e-07
8.8866613e-07
9.4379473e-07
1.0248893e-06
1.2787266e-06
1.4301004e-06
9.6594395e-07
7.8632278e-07
8.0252116e-07
8.3950128e-07
9.1287439e-07
9.938944e-07
1.1392112e-06
1.4170925e-06
1.1802254e-06
1.0549387e-06
1.1177379e-06
1.2294382e-06
1.4155669e-06
1.6068028e-06
2.1743407e-06
2.8175569e-06
1.6759219e-06
1.4577315e-06
1.8197264e-06
2.2186281e-06
3.1396002e-06
3.3585906e-06
2.3127923e-06
2.3699388e-06
3.1230652e-06
4.3557855e-06
4.3867923e-06
2.9622859e-06
3.0430364e-06
4.1808644e-06
4.9790119e-06
4.3363764e-06
4.4769204e-06
5.0023461e-06
5.2319788e-06
1.1970449e-06
9.6842555e-07
7.8593802e-07
1.2129797e-06
1.7340566e-06
1.3248019e-06
9.8362519e-07
9.9888405e-07
1.1498869e-06
1.0041017e-06
8.4898827e-07
7.8503298e-07
8.1847678e-07
1.0200711e-06
8.850275e-07
7.6154666e-07
7.4258434e-07
7.1315319e-07
7.9633848e-07
1.0094933e-06
6.4756446e-07
5.5873649e-07
5.3088886e-07
5.165999e-07
5.3055724e-07
5.5553932e-07
6.1582119e-07
6.6547414e-07
6.0407033e-07
6.1842462e-07
6.5929443e-07
7.1872046e-07
8.1007851e-07
9.1721024e-07
9.9984569e-07
9.358386e-07
8.0137125e-07
7.7046235e-07
7.8253706e-07
8.2330695e-07
8.7958684e-07
9.5371924e-07
1.0419881e-06
1.1600763e-06
1.2940815e-06
1.5346619e-06
1.7679947e-06
1.5945261e-06
1.5344853e-06
1.605867e-06
1.7335583e-06
1.912776e-06
2.1408383e-06
2.4599863e-06
3.1539832e-06
3.2778938e-06
2.5027401e-06
2.1171488e-06
2.063519e-06
2.1141658e-06
2.244723e-06
2.37958e-06
2.646571e-06
3.0093109e-06
2.5156349e-06
2.2399424e-06
2.1812047e-06
2.1854238e-06
2.2240885e-06
2.2781116e-06
2.348423e-06
2.4416771e-06
2.5828197e-06
2.7882388e-06
3.4193361e-06
3.7598516e-06
2.6404361e-06
2.2091384e-06
2.2281757e-06
2.3325135e-06
2.5304063e-06
2.7430961e-06
3.1309238e-06
3.8162209e-06
3.2284523e-06
2.9397907e-06
3.0975311e-06
3.3957703e-06
3.8879448e-06
4.3750912e-06
5.811103e-06
7.2284438e-06
4.5257749e-06
4.1352133e-06
5.0199499e-06
6.1195538e-06
8.4603508e-06
8.972177e-06
6.4559127e-06
6.7312522e-06
8.6785052e-06
1.1909326e-05
1.197055e-05
8.4255018e-06
8.7493302e-06
1.1769649e-05
1.3909873e-05
1.2261697e-05
1.2697743e-05
1.4056361e-05
1.465172e-05
2.7100083e-06
2.2232147e-06
1.8204633e-06
2.6559919e-06
3.7118679e-06
2.9259354e-06
2.2185173e-06
2.2442239e-06
2.5567657e-06
2.262484e-06
1.928896e-06
1.8008581e-06
1.8697901e-06
2.3004669e-06
2.01615e-06
1.7489975e-06
1.7057245e-06
1.6553698e-06
1.8453363e-06
2.3059197e-06
1.5066576e-06
1.3013364e-06
1.2383596e-06
1.2058877e-06
1.2385106e-06
1.2975502e-06
1.4377193e-06
1.5522269e-06
1.4138044e-06
1.4460474e-06
1.5402414e-06
1.6768944e-06
1.8865954e-06
2.1322538e-06
2.3246389e-06
2.1853357e-06
1.8762043e-06
1.8001548e-06
1.8254687e-06
1.9168789e-06
2.0436443e-06
2.2104974e-06
2.4082388e-06
2.671507e-06
2.9673687e-06
3.4902864e-06
4.0058685e-06
3.6508832e-06
3.5112381e-06
3.649451e-06
3.9188738e-06
4.2966397e-06
4.7758882e-06
5.4306158e-06
6.7972223e-06
7.1217815e-06
5.6102349e-06
4.7740606e-06
4.6110701e-06
4.7017945e-06
4.9630529e-06
5.2368647e-06
5.7615021e-06
6.4649568e-06
5.5431801e-06
4.9774273e-06
4.826085e-06
4.8284008e-06
4.9057235e-06
5.0164746e-06
5.1597779e-06
5.3475366e-06
5.6281557e-06
6.0318285e-06
7.2085156e-06
7.8476121e-06
5.7531771e-06
4.8955975e-06
4.9108283e-06
5.1458712e-06
5.5642472e-06
6.0079198e-06
6.7933489e-06
8.0940861e-06
6.9986229e-06
6.4621268e-06
6.7833644e-06
7.4054532e-06
8.3997572e-06
9.3543823e-06
1.2010662e-05
1.4361779e-05
9.5208538e-06
8.9806343e-06
1.0723166e-05
1.3024474e-05
1.7387957e-05
1.8370191e-05
1.3899413e-05
1.478158e-05
1.8630858e-05
2.4852689e-05
2.504332e-05
1.8609598e-05
1.9738759e-05
2.5825175e-05
3.0113104e-05
2.7046495e-05
2.8151261e-05
3.075032e-05
3.1857577e-05
5.1734709e-06
4.301447e-06
3.542035e-06
4.8729754e-06
6.6129997e-06
5.40078e-06
4.2195685e-06
4.2630872e-06
4.8024081e-06
4.3158698e-06
3.7318472e-06
3.5221413e-06
3.6514607e-06
4.4227367e-06
3.9244993e-06
3.4465985e-06
3.3669915e-06
3.307472e-06
3.692759e-06
4.5245987e-06
3.0290851e-06
2.6274943e-06
2.5058177e-06
2.4440858e-06
2.5106518e-06
2.6328076e-06
2.914658e-06
3.1403958e-06
2.874491e-06
2.9379796e-06
3.125223e-06
3.3958999e-06
3.8087676e-06
4.2904914e-06
4.6750663e-06
4.4192312e-06
3.8095831e-06
3.6483527e-06
3.6921095e-06
3.8659285e-06
4.10815e-06
4.4262089e-06
4.8006343e-06
5.2947319e-06
5.8438339e-06
6.7886718e-06
7.7391693e-06
7.1476041e-06
6.8780167e-06
7.0877854e-06
7.5481991e-06
8.1991903e-06
9.0247741e-06
1.0119386e-05
1.2287339e-05
1.2973773e-05
1.0600092e-05
9.1201305e-06
8.7288132e-06
8.8261063e-06
9.2310867e-06
9.6751038e-06
1.0491468e-05
1.158428e-05
1.0221909e-05
9.2786854e-06
8.960813e-06
8.9390076e-06
9.0588436e-06
9.2424329e-06
9.4798404e-06
9.7867172e-06
1.0235275e-05
1.0870326e-05
1.2587898e-05
1.3564903e-05
1.0458912e-05
9.0303876e-06
8.9908471e-06
9.416236e-06
1.0142766e-05
1.0908066e-05
1.2175191e-05
1.4131518e-05
1.2554842e-05
1.1749522e-05
1.2273426e-05
1.3320949e-05
1.492328e-05
1.6414682e-05
2.0169216e-05
2.3144795e-05
1.6389451e-05
1.5705807e-05
1.8481215e-05
2.2299236e-05
2.8568637e-05
3.0190847e-05
2.4203002e-05
2.6087766e-05
3.2168606e-05
4.1412521e-05
4.2075278e-05
3.3302882e-05
3.6094912e-05
4.5880726e-05
5.2653074e-05
4.843807e-05
5.0628761e-05
5.4529762e-05
5.6079567e-05
8.5262302e-06
7.1593926e-06
5.9324031e-06
7.7478473e-06
1.0142704e-05
8.5952906e-06
6.974806e-06
7.0636305e-06
7.8581773e-06
7.1819518e-06
6.3328941e-06
6.0552614e-06
6.2923192e-06
7.4820842e-06
6.7363831e-06
6.0140599e-06
5.8972669e-06
5.8748997e-06
6.5903411e-06
7.881147e-06
5.4410567e-06
4.7569952e-06
4.5511857e-06
4.451379e-06
4.5748708e-06
4.8036188e-06
5.3092506e-06
5.7023957e-06
5.2552571e-06
5.3686949e-06
5.699513e-06
6.1747844e-06
6.8911998e-06
7.7199552e-06
8.3971033e-06
7.9961826e-06
6.935052e-06
6.632005e-06
6.6938097e-06
6.980051e-06
7.3814956e-06
7.906674e-06
8.5196389e-06
9.3183583e-06
1.0195377e-05
1.1649487e-05
1.3142765e-05
1.2329694e-05
1.1894205e-05
1.2144579e-05
1.2793992e-05
1.3733845e-05
1.4932625e-05
1.6475289e-05
1.9371946e-05
2.0534078e-05
1.7477454e-05
1.5298781e-05
1.4530521e-05
1.4517889e-05
1.4988246e-05
1.5561972e-05
1.6600137e-05
1.8008323e-05
1.6343855e-05
1.5027982e-05
1.4466316e-05
1.4360964e-05
1.4491266e-05
1.4735244e-05
1.5061375e-05
1.5481627e-05
1.6080485e-05
1.6913749e-05
1.8969825e-05
2.0226127e-05
1.6472998e-05
1.4445341e-05
1.4207094e-05
1.4780568e-05
1.5821346e-05
1.693808e-05
1.8633495e-05
2.1041296e-05
1.926405e-05
1.8298086e-05
1.8976635e-05
2.0414598e-05
2.2537501e-05
2.4464839e-05
2.8703674e-05
3.1636015e-05
2.4050413e-05
2.3231929e-05
2.6732409e-05
3.1842485e-05
3.9162432e-05
4.1485514e-05
3.5388415e-05
3.8378063e-05
4.6267627e-05
5.7479544e-05
5.9145897e-05
4.9964007e-05
5.495123e-05
6.8059908e-05
7.7138935e-05
7.2797357e-05
7.6233443e-05
8.1185642e-05
8.3000596e-05
1.2334217e-05
1.0441327e-05
8.7836109e-06
1.0979034e-05
1.3804678e-05
1.2126012e-05
1.0267059e-05
1.0456817e-05
1.1474255e-05
1.0666188e-05
9.631081e-06
9.3572452e-06
9.7819422e-06
1.1390631e-05
1.0416608e-05
9.4854355e-06
9.3629327e-06
9.4740933e-06
1.0685386e-05
1.2429503e-05
8.9030473e-06
7.8713372e-06
7.5620528e-06
7.4248231e-06
7.6363066e-06
8.0282537e-06
8.8471261e-06
9.4596498e-06
8.7949608e-06
8.980352e-06
9.5044649e-06
1.0250163e-05
1.1353568e-05
1.2611529e-05
1.3667201e-05
1.3142504e-05
1.1498949e-05
1.098971e-05
1.1056046e-05
1.1464619e-05
1.2044057e-05
1.279946e-05
1.367312e-05
1.4795068e-05
1.6013352e-05
1.7946965e-05
1.9964888e-05
1.9052878e-05
1.8471674e-05
1.8709851e-05
1.9480701e-05
2.0640759e-05
2.214257e-05
2.4034615e-05
2.7430955e-05
2.9121461e-05
2.5828043e-05
2.3095606e-05
2.1849542e-05
2.1559392e-05
2.1921914e-05
2.2493268e-05
2.3591861e-05
2.5162477e-05
2.3374621e-05
2.1766903e-05
2.092014e-05
2.0645189e-05
2.0705161e-05
2.0949295e-05
2.1317826e-05
2.1808646e-05
2.2500768e-05
2.3454124e-05
2.5599542e-05
2.7068763e-05
2.3197835e-05
2.0695106e-05
2.0080721e-05
2.0603484e-05
2.1809795e-05
2.3188953e-05
2.513911e-05
2.7654371e-05
2.605178e-05
2.5151147e-05
2.5877697e-05
2.7507021e-05
2.9880481e-05
3.2007261e-05
3.6030511e-05
3.8316938e-05
3.1175558e-05
3.0343495e-05
3.3900649e-05
3.9523025e-05
4.6827509e-05
4.9665423e-05
4.4992937e-05
4.8964553e-05
5.7722823e-05
6.947851e-05
7.2537594e-05
6.5170865e-05
7.2324869e-05
8.7744138e-05
9.89037e-05
9.5681814e-05
0.00010034203
0.00010613229
0.00010819617
1.5953472e-05
1.3663997e-05
1.1806151e-05
1.4240488e-05
1.7198421e-05
1.5595808e-05
1.3773705e-05
1.4140614e-05
1.5308602e-05
1.4459108e-05
1.3395547e-05
1.3255781e-05
1.3971647e-05
1.5918146e-05
1.478178e-05
1.3757256e-05
1.3718463e-05
1.4108261e-05
1.5916342e-05
1.7997258e-05
1.3444683e-05
1.2038457e-05
1.1621476e-05
1.1462481e-05
1.1796454e-05
1.2408648e-05
1.3604692e-05
1.445904e-05
1.3585155e-05
1.3859296e-05
1.4601196e-05
1.5643117e-05
1.714788e-05
1.8829415e-05
2.0284171e-05
1.9734902e-05
1.7474656e-05
1.6711537e-05
1.6751152e-05
1.7252624e-05
1.7979402e-05
1.8927311e-05
2.0016452e-05
2.1397844e-05
2.2887065e-05
2.5148883e-05
2.7547806e-05
2.6707744e-05
2.6074067e-05
2.6271809e-05
2.7073031e-05
2.8335339e-05
3.000698e-05
3.209707e-05
3.5729653e-05
3.8020874e-05
3.486722e-05
3.1865164e-05
3.0209132e-05
2.9549982e-05
2.9635135e-05
3.0038447e-05
3.1014818e-05
3.2595279e-05
3.0776075e-05
2.8969036e-05
2.7845916e-05
2.7332349e-05
2.7224455e-05
2.7372507e-05
2.7700654e-05
2.8190517e-05
2.8905925e-05
2.9903865e-05
3.2013373e-05
3.3743038e-05
3.0151218e-05
2.7309552e-05
2.6195715e-05
2.6406677e-05
2.7504701e-05
2.8933647e-05
3.0908838e-05
3.3248842e-05
3.2050618e-05
3.1394064e-05
3.2062462e-05
3.3625362e-05
3.5929339e-05
3.7995374e-05
4.1385813e-05
4.2872231e-05
3.6961221e-05
3.6227021e-05
3.9206442e-05
4.4420973e-05
5.090329e-05
5.3792145e-05
5.1334571e-05
5.6107662e-05
6.4815981e-05
7.5912809e-05
8.0377379e-05
7.6331867e-05
8.5374367e-05
0.0001020096
0.00011514688
0.00011414251
0.00012015515
0.00012678295
0.00012932695
1.8834941e-05
1.6462378e-05
1.4761232e-05
1.7369812e-05
2.0232239e-05
1.8790873e-05
1.7222469e-05
1.7851974e-05
1.9123115e-05
1.8312846e-05
1.7395056e-05
1.7529478e-05
1.863655e-05
2.0814769e-05
1.959694e-05
1.8645112e-05
1.8832639e-05
1.966384e-05
2.2116811e-05
2.4295371e-05
1.8890227e-05
1.7148421e-05
1.6638088e-05
1.6484104e-05
1.6965011e-05
1.7826672e-05
1.9393012e-05
2.0459117e-05
1.9444027e-05
1.980486e-05
2.0738721e-05
2.2032058e-05
2.3852124e-05
2.5843315e-05
2.7628063e-05
2.7187095e-05
2.4426153e-05
2.3409836e-05
2.3382017e-05
2.3909973e-05
2.4706768e-05
2.5756245e-05
2.6962249e-05
2.8483744e-05
3.0123146e-05
3.2519591e-05
3.5117193e-05
3.4465967e-05
3.3896614e-05
3.4072212e-05
3.4845558e-05
3.6110477e-05
3.7829718e-05
3.9986705e-05
4.366888e-05
4.6350967e-05
4.3631774e-05
4.0715538e-05
3.8861175e-05
3.7886587e-05
3.7644199e-05
3.7785617e-05
3.8519752e-05
3.9996386e-05
3.8161542e-05
3.6237618e-05
3.4893279e-05
3.4129656e-05
3.3794699e-05
3.3762803e-05
3.3965443e-05
3.4379229e-05
3.5061661e-05
3.6061155e-05
3.8166701e-05
4.0260217e-05
3.7059316e-05
3.3992568e-05
3.2367619e-05
3.208627e-05
3.2802658e-05
3.4021378e-05
3.5794035e-05
3.7860885e-05
3.7043659e-05
3.6585802e-05
3.7099511e-05
3.8405194e-05
4.0409998e-05
4.2237439e-05
4.4933986e-05
4.597925e-05
4.1437832e-05
4.065509e-05
4.2712526e-05
4.6909892e-05
5.2213175e-05
5.4617597e-05
5.4078651e-05
5.9392781e-05
6.744573e-05
7.7112319e-05
8.2552423e-05
8.216793e-05
9.2933895e-05
0.00010985753
0.00012469149
0.00012668762
0.00013454461
0.00014218293
0.00014560134
2.0745826e-05
1.870805e-05
1.7534258e-05
2.0413934e-05
2.3117924e-05
2.173299e-05
2.0501084e-05
2.1447391e-05
2.2869561e-05
2.2141308e-05
2.1503758e-05
2.1993657e-05
2.3515175e-05
2.5883821e-05
2.4654677e-05
2.3932159e-05
2.4476351e-05
2.5820293e-05
2.8769124e-05
3.0802417e-05
2.4910581e-05
2.2906284e-05
2.2328947e-05
2.2202512e-05
2.2826573e-05
2.3910943e-05
2.5751872e-05
2.6954344e-05
2.5907494e-05
2.6329065e-05
2.738255e-05
2.8825288e-05
3.0812044e-05
3.2949062e-05
3.4943382e-05
3.4677585e-05
3.1632694e-05
3.0420352e-05
3.0298708e-05
3.0783386e-05
3.1565517e-05
3.2619702e-05
3.3843024e-05
3.5392566e-05
3.7077879e-05
3.9459751e-05
4.2094684e-05
4.1684526e-05
4.1252748e-05
4.144246e-05
4.2177774e-05
4.3400978e-05
4.5099265e-05
4.7252865e-05
5.0873721e-05
5.3754433e-05
5.1579687e-05
4.8911357e-05
4.7034166e-05
4.587784e-05
4.5381268e-05
4.528328e-05
4.5757656e-05
4.7065414e-05
4.5244448e-05
4.3270815e-05
4.1794463e-05
4.0834052e-05
4.0280153e-05
4.0044709e-05
4.0080576e-05
4.0374935e-05
4.0999053e-05
4.1991935e-05
4.4186706e-05
4.6666421e-05
4.3855837e-05
4.0682432e-05
3.8636106e-05
3.7816969e-05
3.7990376e-05
3.8797541e-05
4.0190724e-05
4.2046325e-05
4.1329819e-05
4.0883767e-05
4.115144e-05
4.2104973e-05
4.3713576e-05
4.5244921e-05
4.7413922e-05
4.8660465e-05
4.5065433e-05
4.4021374e-05
4.5126288e-05
4.8110207e-05
5.2196029e-05
5.3391131e-05
5.4384252e-05
5.9476906e-05
6.6545272e-05
7.4496017e-05
7.9482145e-05
8.3208331e-05
9.5149453e-05
0.00011158471
0.00012696501
0.0001333174
0.00014321901
0.00015208717
0.0001568364
2.1951277e-05
2.0510928e-05
2.0138979e-05
2.3453283e-05
2.6099064e-05
2.4597298e-05
2.3688639e-05
2.4830386e-05
2.6598196e-05
2.5966746e-05
2.5686812e-05
2.6552664e-05
2.8408576e-05
3.0944095e-05
2.9767015e-05
2.9361637e-05
3.0299833e-05
3.2087797e-05
3.5274628e-05
3.7043348e-05
3.1098566e-05
2.8910684e-05
2.8290769e-05
2.8195509e-05
2.8924929e-05
3.0153263e-05
3.2125777e-05
3.3384944e-05
3.241424e-05
3.2860371e-05
3.3951572e-05
3.543659e-05
3.7453278e-05
3.9599663e-05
4.1688234e-05
4.1563003e-05
3.8443117e-05
3.7117868e-05
3.6904048e-05
3.7305126e-05
3.801945e-05
3.9015607e-05
4.0194605e-05
4.1704165e-05
4.3372423e-05
4.5667357e-05
4.8253351e-05
4.8080688e-05
4.7798205e-05
4.8024554e-05
4.8735326e-05
4.9914394e-05
5.157414e-05
5.3704775e-05
5.7218278e-05
6.0164759e-05
5.8481625e-05
5.6077442e-05
5.4267648e-05
5.3047268e-05
5.2405925e-05
5.2149014e-05
5.241741e-05
5.3537034e-05
5.1745687e-05
4.9818972e-05
4.8299849e-05
4.7217803e-05
4.6504224e-05
4.6103766e-05
4.5994951e-05
4.6177687e-05
4.675498e-05
4.7759112e-05
5.0098592e-05
5.295564e-05
5.0486277e-05
4.7332148e-05
4.5011202e-05
4.3732198e-05
4.3366356e-05
4.3693756e-05
4.4630093e-05
4.6361237e-05
4.5576641e-05
4.4868898e-05
4.4778335e-05
4.5340493e-05
4.6546929e-05
4.7812173e-05
4.9688502e-05
5.1696553e-05
4.8844049e-05
4.7175103e-05
4.7385808e-05
4.9218542e-05
5.2171419e-05
5.2331794e-05
5.3415645e-05
5.7909287e-05
6.3661938e-05
6.9852913e-05
7.3622179e-05
7.9958401e-05
9.2749009e-05
0.00010815775
0.00012336571
0.0001335953
0.00014604537
0.00015648561
0.00016297055
2.2918523e-05
2.2180114e-05
2.2756952e-05
2.6533245e-05
2.9092385e-05
2.7531302e-05
2.6980058e-05
2.8289719e-05
3.0300489e-05
2.9787574e-05
2.9875758e-05
3.1107107e-05
3.3246394e-05
3.5794495e-05
3.4734943e-05
3.464684e-05
3.5911891e-05
3.7994814e-05
4.123097e-05
4.2767435e-05
3.7091734e-05
3.4784724e-05
3.4134409e-05
3.4054579e-05
3.483325e-05
3.6112045e-05
3.8090021e-05
3.9355515e-05
3.8536036e-05
3.8977518e-05
4.0046959e-05
4.1498744e-05
4.3456992e-05
4.5529355e-05
4.7624723e-05
4.7552947e-05
4.4505731e-05
4.3143502e-05
4.285614e-05
4.3165694e-05
4.3794442e-05
4.4707897e-05
4.5818247e-05
4.7259865e-05
4.8884538e-05
5.1066534e-05
5.35681e-05
5.3616402e-05
5.3458092e-05
5.3728091e-05
5.4429517e-05
5.557857e-05
5.7205847e-05
5.9315111e-05
6.2700628e-05
6.5629098e-05
6.4328382e-05
6.217041e-05
6.0456115e-05
5.9234481e-05
5.852945e-05
5.8187625e-05
5.8319875e-05
5.9253635e-05
5.7579852e-05
5.5715778e-05
5.4201472e-05
5.3066199e-05
5.2267363e-05
5.1770675e-05
5.157579e-05
5.1692884e-05
5.2260828e-05
5.3309197e-05
5.5804121e-05
5.8829473e-05
5.671868e-05
5.3713649e-05
5.1285091e-05
4.9707172e-05
4.8935034e-05
4.8848355e-05
4.9371267e-05
5.0988388e-05
5.007062e-05
4.8992759e-05
4.8510604e-05
4.8688807e-05
4.9529304e-05
5.0590246e-05
5.2360671e-05
5.5378484e-05
5.3072284e-05
5.0608405e-05
5.0088997e-05
5.1001027e-05
5.3051359e-05
5.2891948e-05
5.3099079e-05
5.6054294e-05
6.0314151e-05
6.4905172e-05
6.6893242e-05
7.4079089e-05
8.6842119e-05
0.00010088419
0.00011510654
0.00012820045
0.00014322683
0.00015548285
0.00016382368
2.4081541e-05
2.4053867e-05
2.5580139e-05
2.9728418e-05
3.199013e-05
3.0520967e-05
3.0345348e-05
3.1904023e-05
3.3883671e-05
3.3531012e-05
3.3917353e-05
3.5441148e-05
3.7785814e-05
4.0251731e-05
3.9372918e-05
3.9544327e-05
4.1023269e-05
4.32473e-05
4.6477502e-05
4.789615e-05
4.2656356e-05
4.0273665e-05
3.9591406e-05
3.9502162e-05
4.0276762e-05
4.1530792e-05
4.3434612e-05
4.468585e-05
4.4056337e-05
4.4476771e-05
4.5491708e-05
4.686781e-05
4.872013e-05
5.0673587e-05
5.2712215e-05
5.2609066e-05
4.9725779e-05
4.8383396e-05
4.8047285e-05
4.8275165e-05
4.8819508e-05
4.9647791e-05
5.0685023e-05
5.2052182e-05
5.3623668e-05
5.5685564e-05
5.8088463e-05
5.8322632e-05
5.8272927e-05
5.8587839e-05
5.9290374e-05
6.0420798e-05
6.2024625e-05
6.411701e-05
6.73574e-05
7.0210714e-05
6.9210543e-05
6.7271053e-05
6.5655258e-05
6.4460962e-05
6.3738742e-05
6.3361878e-05
6.3412627e-05
6.4176535e-05
6.2630433e-05
6.0860492e-05
5.9394337e-05
5.8259199e-05
5.7437906e-05
5.6910138e-05
5.6690635e-05
5.6799224e-05
5.7402779e-05
5.8534455e-05
6.1159276e-05
6.4225631e-05
6.2410011e-05
5.9594468e-05
5.718063e-05
5.5461532e-05
5.4447321e-05
5.4075126e-05
5.4304967e-05
5.5746011e-05
5.4731614e-05
5.3357923e-05
5.2542184e-05
5.2391142e-05
5.2923497e-05
5.3838249e-05
5.5622318e-05
5.9318118e-05
5.7519736e-05
5.4795713e-05
5.3601384e-05
5.3758083e-05
5.5068572e-05
5.5124613e-05
5.3901684e-05
5.5313668e-05
5.7914974e-05
6.1010912e-05
6.1975139e-05
6.776802e-05
7.9070183e-05
9.1337122e-05
0.00010388794
0.00011837684
0.00013534412
0.00014937571
0.00015966846
2.5691584e-05
2.6322732e-05
2.8546913e-05
3.2793424e-05
3.4702854e-05
3.3456434e-05
3.3652964e-05
3.5355438e-05
3.7236817e-05
3.7057457e-05
3.7658743e-05
3.9349952e-05
4.1864899e-05
4.4219318e-05
4.3550436e-05
4.3911371e-05
4.5506688e-05
4.7760656e-05
5.099223e-05
5.2409744e-05
4.7685472e-05
4.5254754e-05
4.4530491e-05
4.4406605e-05
4.5136723e-05
4.6317503e-05
4.8106661e-05
4.9338114e-05
4.8911169e-05
4.9304711e-05
5.0248958e-05
5.1527235e-05
5.3248239e-05
5.5056629e-05
5.6989865e-05
5.6796275e-05
5.4131484e-05
5.2849168e-05
5.2486631e-05
5.2647686e-05
5.3116193e-05
5.386453e-05
5.4831224e-05
5.6123279e-05
5.763716e-05
5.9576124e-05
6.1870593e-05
6.2257841e-05
6.2309742e-05
6.2666431e-05
6.3373788e-05
6.4488919e-05
6.6075116e-05
6.8149008e-05
7.1222156e-05
7.3958428e-05
7.3207319e-05
7.1469025e-05
6.9952888e-05
6.8800346e-05
6.8087307e-05
6.7704942e-05
6.7708595e-05
6.8319221e-05
6.6906315e-05
6.5251484e-05
6.3861763e-05
6.2763351e-05
6.1964935e-05
6.1456716e-05
6.126237e-05
6.1413024e-05
6.209303e-05
6.3343376e-05
6.605671e-05
6.9120057e-05
6.7506474e-05
6.4855069e-05
6.251954e-05
6.0763175e-05
5.9634425e-05
5.909272e-05
5.9152818e-05
6.0427699e-05
5.9332794e-05
5.7778528e-05
5.673768e-05
5.6344772e-05
5.6642804e-05
5.7464257e-05
5.9317353e-05
6.3358648e-05
6.1990075e-05
5.9340631e-05
5.7732226e-05
5.7318531e-05
5.8044472e-05
5.8197601e-05
5.6163168e-05
5.6015107e-05
5.7144546e-05
5.8998923e-05
5.9442789e-05
6.27422e-05
7.1345003e-05
8.1324558e-05
9.1679506e-05
0.00010588921
0.00012354824
0.00013884323
0.00015092504
2.7711179e-05
2.8850175e-05
3.1470938e-05
3.5552991e-05
3.7160765e-05
3.6181789e-05
3.6676218e-05
3.8453273e-05
4.0230003e-05
4.0257749e-05
4.1012578e-05
4.2798123e-05
4.5411292e-05
4.7696769e-05
4.7202431e-05
4.7694752e-05
4.9347358e-05
5.1585221e-05
5.4821487e-05
5.6320387e-05
5.2146955e-05
4.9690928e-05
4.8912953e-05
4.8732124e-05
4.9390393e-05
5.0469858e-05
5.2125586e-05
5.3334994e-05
5.3107179e-05
5.3474186e-05
5.4339337e-05
5.5507013e-05
5.7080281e-05
5.8724011e-05
6.0511616e-05
6.0195925e-05
5.7782838e-05
5.6588125e-05
5.6217541e-05
5.6325342e-05
5.6726907e-05
5.7400994e-05
5.8299927e-05
5.9515462e-05
6.0966546e-05
6.2778297e-05
6.4955306e-05
6.5475099e-05
6.5621451e-05
6.6014007e-05
6.6724104e-05
6.7818997e-05
6.9390944e-05
7.1434597e-05
7.4312855e-05
7.690228e-05
7.636835e-05
7.4828299e-05
7.3420877e-05
7.2321594e-05
7.1633796e-05
7.1262525e-05
7.1237929e-05
7.1708368e-05
7.0435455e-05
6.8911186e-05
6.7619748e-05
6.6586662e-05
6.5844843e-05
6.5393769e-05
6.5261648e-05
6.5494099e-05
6.6282226e-05
6.7673731e-05
7.0433864e-05
7.3433106e-05
7.1972302e-05
6.9457372e-05
6.7229408e-05
6.5492842e-05
6.4328816e-05
6.3699507e-05
6.3683669e-05
6.4752247e-05
6.362086e-05
6.200359e-05
6.0847304e-05
6.0304196e-05
6.0446706e-05
6.122745e-05
6.3164901e-05
6.7342887e-05
6.6313338e-05
6.3844359e-05
6.2040837e-05
6.1238649e-05
6.1523081e-05
6.1605667e-05
5.9286392e-05
5.8079947e-05
5.8062681e-05
5.8966123e-05
5.8763865e-05
5.996881e-05
6.5260042e-05
7.2588969e-05
8.0433603e-05
9.2816973e-05
0.00010955576
0.00012510701
0.0001383714
2.9913708e-05
3.1396628e-05
3.4176214e-05
3.7929709e-05
3.9313984e-05
3.8611456e-05
3.9323414e-05
4.1129505e-05
4.2838431e-05
4.3060616e-05
4.3933554e-05
4.576384e-05
4.8396788e-05
5.065182e-05
5.031161e-05
5.0891338e-05
5.2567163e-05
5.4774292e-05
5.8021573e-05
5.9645063e-05
5.6036715e-05
5.3582689e-05
5.2741595e-05
5.2486131e-05
5.305421e-05
5.4016259e-05
5.5528848e-05
5.6712305e-05
5.6669615e-05
5.7013776e-05
5.7794376e-05
5.8842096e-05
6.0253798e-05
6.1714323e-05
6.3321486e-05
6.2872837e-05
6.0732304e-05
5.964312e-05
5.927951e-05
5.9344409e-05
5.9685683e-05
6.0288999e-05
6.1120628e-05
6.2255175e-05
6.3635588e-05
6.5312802e-05
6.7362641e-05
6.7999835e-05
6.823582e-05
6.8656968e-05
6.9363841e-05
7.0432899e-05
7.1984141e-05
7.3977565e-05
7.6631262e-05
7.9055728e-05
7.8711407e-05
7.7382442e-05
7.6104736e-05
7.5070168e-05
7.4418678e-05
7.4068769e-05
7.4025148e-05
7.4366603e-05
7.3235995e-05
7.1861428e-05
7.0689898e-05
6.9747046e-05
6.908883e-05
6.8723081e-05
6.868121e-05
6.9025908e-05
6.9943285e-05
7.1484551e-05
7.4244255e-05
7.7124847e-05
7.5782534e-05
7.3395705e-05
7.1292255e-05
6.9608767e-05
6.8456952e-05
6.7793816e-05
6.7760953e-05
6.8579018e-05
6.744263e-05
6.5849294e-05
6.4665543e-05
6.4051551e-05
6.4110396e-05
6.4902478e-05
6.6921136e-05
7.1090634e-05
7.0325814e-05
6.8047779e-05
6.6178002e-05
6.5121041e-05
6.5075175e-05
6.5015733e-05
6.2756183e-05
6.0982871e-05
6.019971e-05
6.0375632e-05
5.9772936e-05
5.9452778e-05
6.1766242e-05
6.6370112e-05
7.1662186e-05
8.1153223e-05
9.5434865e-05
0.00010992542
0.0001233428
3.2059926e-05
3.3764022e-05
3.654465e-05
3.9896894e-05
4.112566e-05
4.0712121e-05
4.1549668e-05
4.3359564e-05
4.504472e-05
4.5426596e-05
4.6397364e-05
4.8234077e-05
5.0817297e-05
5.3031825e-05
5.2880237e-05
5.3516085e-05
5.5190318e-05
5.7362502e-05
6.0620381e-05
6.2391204e-05
5.9353987e-05
5.693785e-05
5.6028569e-05
5.5686282e-05
5.6150654e-05
5.6985157e-05
5.8347585e-05
5.9499164e-05
5.9619031e-05
5.9945734e-05
6.0637226e-05
6.1556501e-05
6.2793085e-05
6.4050964e-05
6.5446647e-05
6.4868879e-05
6.3012689e-05
6.2040482e-05
6.1695733e-05
6.1724746e-05
6.2009699e-05
6.2542947e-05
6.3304952e-05
6.4350587e-05
6.5649793e-05
6.7180512e-05
6.9094729e-05
6.983549e-05
7.0155718e-05
7.0598816e-05
7.1294197e-05
7.2334627e-05
7.384941e-05
7.5764507e-05
7.816546e-05
8.0419614e-05
8.0223963e-05
7.9142269e-05
7.8022487e-05
7.7067437e-05
7.6459657e-05
7.6138739e-05
7.6083183e-05
7.6303145e-05
7.532231e-05
7.4119799e-05
7.3087052e-05
7.2256495e-05
7.1705209e-05
7.1444974e-05
7.1518722e-05
7.1997643e-05
7.3055838e-05
7.4741606e-05
7.7446379e-05
8.0158602e-05
7.8913995e-05
7.6669449e-05
7.4706675e-05
7.3101677e-05
7.1994439e-05
7.1334939e-05
7.1312951e-05
7.1869416e-05
7.0745069e-05
6.9220405e-05
6.806837e-05
6.7447614e-05
6.7483328e-05
6.8335938e-05
7.0413332e-05
7.4460986e-05
7.3918934e-05
7.1814214e-05
6.9939667e-05
6.8712705e-05
6.8417218e-05
6.8222943e-05