/*--------------------------------*- C++ -*----------------------------------*\
| =========                 |                                                 |
| \\      /  F ield         | OpenFOAM: The Open Source CFD Toolbox           |
|  \\    /   O peration     | Version:  v2006                                 |
|   \\  /    A nd           | Website:  www.openfoam.com                      |
|    \\/     M anipulation  |                                                 |
\*---------------------------------------------------------------------------*/
FoamFile
{
    version     2.0;
    format      ascii;
    class       volScalarField;
    location    "4000";
    object      nut;
}
// * * * * * * * * * * * * * * * * * * * * * * * * * * * * * * * * * * * * * //

dimensions      [0 2 -1 0 0 0 0];


internalField   nonuniform List<scalar> 
103740
(
2.5994771e-12
8.0574035e-13
6.1379721e-13
9.5446249e-12
1.1108156e-11
4.4715871e-12
3.038975e-12
4.5360164e-12
5.5648674e-12
3.0178203e-12
2.9444391e-12
1.5737623e-12
3.2892069e-12
3.9066495e-12
2.2428384e-12
1.7655772e-12
1.7750394e-12
7.5392793e-13
2.6130776e-12
2.0634557e-12
8.1176909e-13
7.9038368e-13
5.2261137e-13
4.8543942e-13
3.8738077e-13
3.2337765e-13
3.4425401e-13
2.4244483e-13
1.3865606e-13
1.1189737e-13
6.9112192e-14
4.4184559e-14
2.1692575e-14
5.9848726e-15
6.8336609e-15
2.2961195e-14
4.97221e-14
8.1210717e-14
1.3695827e-13
1.9603683e-13
2.913507e-13
3.9679967e-13
5.5897787e-13
7.3581121e-13
1.0492736e-12
1.3567782e-12
2.2994991e-12
2.0692843e-12
1.765726e-12
2.3775731e-12
2.7487995e-12
3.415417e-12
4.2506295e-12
5.4247116e-12
8.0878118e-12
1.1842923e-11
6.6465452e-12
3.6761618e-12
4.9614085e-12
5.072914e-12
5.5609575e-12
6.6388674e-12
6.9448291e-12
1.081981e-11
8.9396886e-12
4.7814074e-12
5.9895031e-12
5.8040987e-12
6.0934376e-12
6.4072482e-12
6.7706393e-12
7.3542553e-12
8.0631033e-12
9.4922838e-12
1.2042792e-11
2.0608214e-11
1.2399182e-11
2.8700753e-12
5.363758e-12
5.0486383e-12
5.400985e-12
6.4880922e-12
6.8132169e-12
1.1257877e-11
1.0942197e-11
4.7171587e-12
5.869192e-12
6.5661852e-12
7.4161518e-12
9.9823093e-12
1.2050334e-11
2.9274162e-11
1.8191524e-11
3.9684492e-13
5.8521046e-12
5.6880857e-12
9.2816147e-12
1.7172331e-11
7.0841244e-12
1.1724875e-12
4.2642194e-12
5.7638323e-12
1.0601808e-11
3.1298767e-12
3.3346018e-13
1.3821227e-12
2.5326138e-12
2.1446602e-12
8.8726218e-13
1.720748e-12
2.2474457e-12
2.9293124e-12
1.2729775e-12
1.0095915e-12
8.7933095e-12
1.0322679e-11
4.510722e-12
3.104781e-12
4.3710713e-12
5.2744168e-12
3.0610195e-12
2.9112252e-12
1.7326833e-12
3.1899851e-12
3.7596895e-12
2.2993571e-12
1.8408763e-12
1.840511e-12
9.7536102e-13
2.5790292e-12
2.0912956e-12
9.2168358e-13
8.7178346e-13
6.4381453e-13
6.1177425e-13
5.41861e-13
5.0480651e-13
5.5052597e-13
4.6617769e-13
3.6255455e-13
3.55691e-13
3.4760765e-13
3.6462812e-13
4.0099314e-13
4.5349522e-13
5.0781831e-13
3.8409264e-13
3.6964221e-13
4.0095361e-13
4.7020004e-13
5.5638326e-13
6.8218119e-13
8.2792875e-13
1.0314941e-12
1.2668562e-12
1.6300809e-12
2.0562895e-12
3.011158e-12
2.6821685e-12
2.4190268e-12
2.9970323e-12
3.4132359e-12
4.1062496e-12
4.974368e-12
6.1917306e-12
8.9202758e-12
1.2111462e-11
7.2614042e-12
4.4908589e-12
5.5113566e-12
5.6470855e-12
6.1305392e-12
7.0985827e-12
7.5333758e-12
1.0946594e-11
9.0756883e-12
5.4106773e-12
6.3205674e-12
6.1454869e-12
6.3661293e-12
6.6170011e-12
6.9162578e-12
7.4080038e-12
8.03358e-12
9.2919943e-12
1.1727778e-11
1.8987723e-11
1.1838803e-11
3.5243503e-12
5.5532897e-12
5.3243366e-12
5.676294e-12
6.6363799e-12
7.0698781e-12
1.1017246e-11
1.0620816e-11
5.2574112e-12
6.2497816e-12
6.9298898e-12
7.8253837e-12
1.0146688e-11
1.253033e-11
2.759063e-11
1.7718193e-11
2.3746169e-12
7.3401309e-12
7.7425606e-12
1.195437e-11
1.9035085e-11
9.4133352e-12
4.468456e-12
8.1750485e-12
1.1254268e-11
1.5558922e-11
7.3063745e-12
5.0831902e-12
7.7964544e-12
1.0018603e-11
8.7986908e-12
7.9638056e-12
9.5129255e-12
1.0309113e-11
1.9893872e-11
1.5016487e-11
1.1912886e-11
2.4706406e-11
3.1782877e-11
2.1083258e-11
1.5311773e-11
1.6638066e-11
1.8436378e-11
1.4638546e-11
1.2687926e-11
1.094382e-11
1.2635469e-11
1.4343366e-11
1.1476211e-11
9.835843e-12
9.7624084e-12
8.7782969e-12
1.104556e-11
1.0205671e-11
6.2437131e-12
5.6042358e-12
5.3044956e-12
5.2903116e-12
5.5130927e-12
5.883448e-12
6.5907871e-12
6.5453072e-12
6.0761604e-12
6.4398075e-12
7.0866616e-12
7.993224e-12
9.3223471e-12
1.0918842e-11
1.2231646e-11
8.940128e-12
8.0461832e-12
8.1789516e-12
8.7600698e-12
9.6899487e-12
1.0870381e-11
1.2335666e-11
1.4090476e-11
1.6333521e-11
1.8995978e-11
2.3349401e-11
2.7894538e-11
2.4262633e-11
2.3846149e-11
2.5989441e-11
2.8719978e-11
3.2455243e-11
3.705818e-11
4.3462326e-11
5.7536964e-11
6.118809e-11
4.3236517e-11
3.5623059e-11
3.6029865e-11
3.6835323e-11
3.8991812e-11
4.1407908e-11
4.5360498e-11
5.3040324e-11
4.358856e-11
3.6077602e-11
3.5376573e-11
3.4453923e-11
3.4211171e-11
3.4102187e-11
3.4147702e-11
3.4545342e-11
3.5520089e-11
3.7632599e-11
4.5529246e-11
5.6000699e-11
4.0596989e-11
2.8062488e-11
2.9323034e-11
2.9434093e-11
3.0971785e-11
3.3064665e-11
3.6382571e-11
4.5770433e-11
4.1869592e-11
3.4032648e-11
3.5730816e-11
3.8415989e-11
4.3096544e-11
4.8796175e-11
6.4004913e-11
9.3518341e-11
6.5790874e-11
4.7636195e-11
6.3174485e-11
7.4915294e-11
1.0636591e-10
1.2188198e-10
8.5987298e-11
8.4686604e-11
1.1417992e-10
1.5860291e-10
1.6653107e-10
1.1409141e-10
1.164181e-10
1.6200266e-10
1.9279802e-10
1.7056277e-10
1.7541852e-10
1.967397e-10
2.0540685e-10
1.627429e-10
1.3008117e-10
1.0129727e-10
1.5871521e-10
2.1560673e-10
1.6198534e-10
1.1809945e-10
1.2026213e-10
1.3172338e-10
1.135509e-10
9.6596682e-11
8.8611757e-11
9.2823279e-11
1.0578686e-10
9.0423928e-11
7.833269e-11
7.7773793e-11
7.4559891e-11
8.3011294e-11
8.0659786e-11
5.2248483e-11
4.6331963e-11
4.5191532e-11
4.5262542e-11
4.7874194e-11
5.1585033e-11
5.7859342e-11
5.8335229e-11
5.46869e-11
5.8083819e-11
6.4224375e-11
7.2612879e-11
8.4868121e-11
9.9580358e-11
1.1173324e-10
8.1873959e-11
7.3335638e-11
7.4244826e-11
7.913233e-11
8.7200692e-11
9.7331636e-11
1.0999084e-10
1.2492129e-10
1.4422195e-10
1.6641503e-10
2.0428253e-10
2.3981066e-10
2.0708694e-10
2.0442482e-10
2.2061761e-10
2.429671e-10
2.7265922e-10
3.0906017e-10
3.6025419e-10
4.7264052e-10
4.7754234e-10
3.4017849e-10
2.9087259e-10
2.9051667e-10
2.9759876e-10
3.1456557e-10
3.2991725e-10
3.6382437e-10
4.0945579e-10
3.2913331e-10
2.8697718e-10
2.7739624e-10
2.7078195e-10
2.6754966e-10
2.6496735e-10
2.6336254e-10
2.6357563e-10
2.6813468e-10
2.789484e-10
3.350598e-10
3.7226632e-10
2.7076812e-10
2.2285997e-10
2.2636912e-10
2.2993556e-10
2.4240884e-10
2.5492983e-10
2.8288586e-10
3.3887766e-10
2.9803701e-10
2.6714173e-10
2.7971909e-10
3.0008229e-10
3.3646119e-10
3.7121222e-10
4.9260988e-10
6.3661374e-10
4.3614203e-10
3.9983094e-10
5.16362e-10
6.2182626e-10
8.7242871e-10
9.407534e-10
6.8760052e-10
7.2885795e-10
9.7760978e-10
1.353132e-09
1.3720149e-09
9.7027938e-10
1.028963e-09
1.4344675e-09
1.6936507e-09
1.4977979e-09
1.5567893e-09
1.7431164e-09
1.8119428e-09
8.275187e-10
6.6325387e-10
5.0498849e-10
7.4627034e-10
1.0484087e-09
8.1239688e-10
5.9167654e-10
5.9611868e-10
6.6068011e-10
5.8089008e-10
4.9394891e-10
4.5462723e-10
4.6812964e-10
5.420136e-10
4.7130623e-10
4.0896763e-10
4.0611252e-10
3.9043563e-10
4.2394489e-10
4.2741282e-10
2.8058655e-10
2.4734414e-10
2.4204854e-10
2.4244147e-10
2.5684496e-10
2.7674547e-10
3.1017107e-10
3.152758e-10
2.9600506e-10
3.1399777e-10
3.4729242e-10
3.9257785e-10
4.5894163e-10
5.3887251e-10
6.0576561e-10
4.4578912e-10
3.9795191e-10
4.0209649e-10
4.278352e-10
4.7078427e-10
5.2465511e-10
5.9199327e-10
6.7108266e-10
7.7348726e-10
8.9022937e-10
1.0914732e-09
1.2783374e-09
1.0982119e-09
1.0765677e-09
1.1600972e-09
1.2767073e-09
1.4293904e-09
1.6160545e-09
1.8800003e-09
2.4588064e-09
2.4629034e-09
1.7335512e-09
1.4648258e-09
1.4607725e-09
1.5049155e-09
1.5935763e-09
1.6707807e-09
1.8420414e-09
2.0614247e-09
1.6402103e-09
1.4251653e-09
1.3762393e-09
1.3505415e-09
1.337624e-09
1.3259712e-09
1.3178717e-09
1.3177437e-09
1.3386437e-09
1.3912624e-09
1.6648472e-09
1.7993169e-09
1.2683653e-09
1.0612529e-09
1.088767e-09
1.1241681e-09
1.1937561e-09
1.2581168e-09
1.3992276e-09
1.6549359e-09
1.4206087e-09
1.2857312e-09
1.3553608e-09
1.4636721e-09
1.6417027e-09
1.8037022e-09
2.3741087e-09
2.9475619e-09
1.9325555e-09
1.821268e-09
2.3975072e-09
2.9508366e-09
4.1028645e-09
4.3326523e-09
3.1707111e-09
3.43562e-09
4.6643872e-09
6.4405015e-09
6.4434137e-09
4.6274922e-09
5.0486115e-09
7.105464e-09
8.3777596e-09
7.4364067e-09
7.7949984e-09
8.7432479e-09
9.0630249e-09
2.9040679e-09
2.291837e-09
1.709793e-09
2.4835651e-09
3.6044943e-09
2.8286776e-09
2.0728056e-09
2.0942267e-09
2.366975e-09
2.1056826e-09
1.7943063e-09
1.6476966e-09
1.6940324e-09
2.0097036e-09
1.7676137e-09
1.5378333e-09
1.5240357e-09
1.4589377e-09
1.5736387e-09
1.659724e-09
1.099387e-09
9.648948e-10
9.454562e-10
9.4730834e-10
1.004275e-09
1.0812637e-09
1.211403e-09
1.2437731e-09
1.1692427e-09
1.2385689e-09
1.3699519e-09
1.5480226e-09
1.8098138e-09
2.1260226e-09
2.3937932e-09
1.7719575e-09
1.5755673e-09
1.5885689e-09
1.6872632e-09
1.8533893e-09
2.061536e-09
2.321399e-09
2.6253235e-09
3.0185348e-09
3.4638224e-09
4.2336952e-09
4.9595022e-09
4.2392243e-09
4.1059466e-09
4.4033926e-09
4.8399638e-09
5.4041273e-09
6.0923214e-09
7.0615394e-09
9.1888308e-09
9.2873669e-09
6.413185e-09
5.2761865e-09
5.1980055e-09
5.3725404e-09
5.6991457e-09
5.986177e-09
6.578082e-09
7.3726562e-09
5.8427055e-09
4.9997566e-09
4.790506e-09
4.71725e-09
4.6885834e-09
4.6599647e-09
4.6378993e-09
4.639943e-09
4.7113052e-09
4.8970966e-09
5.8213348e-09
6.2639501e-09
4.2618077e-09
3.4747997e-09
3.5569293e-09
3.7406052e-09
4.0169179e-09
4.2678544e-09
4.7519289e-09
5.5931089e-09
4.7272992e-09
4.2331394e-09
4.4575061e-09
4.8521636e-09
5.4496772e-09
5.9872343e-09
7.7417171e-09
9.4616618e-09
5.9572899e-09
5.4105293e-09
7.1245221e-09
9.0404857e-09
1.2478792e-08
1.3245185e-08
9.7022164e-09
1.0451064e-08
1.4256987e-08
1.9709303e-08
1.9891424e-08
1.4525611e-08
1.609211e-08
2.28483e-08
2.723355e-08
2.4521142e-08
2.5872527e-08
2.9135897e-08
3.0259312e-08
7.5840098e-09
5.830317e-09
4.375135e-09
6.4447209e-09
9.5199542e-09
7.4656198e-09
5.5830131e-09
5.7329211e-09
6.5999761e-09
5.9017894e-09
5.0487361e-09
4.6474676e-09
4.8504004e-09
5.9033546e-09
5.2254211e-09
4.5650223e-09
4.5029373e-09
4.3052211e-09
4.7081517e-09
5.2059448e-09
3.46693e-09
3.0348483e-09
2.9770958e-09
2.986496e-09
3.1681333e-09
3.4097499e-09
3.8247799e-09
3.9757e-09
3.7429016e-09
3.9599883e-09
4.3800343e-09
4.9472116e-09
5.7824249e-09
6.7922784e-09
7.656399e-09
5.7175541e-09
5.05958e-09
5.0873715e-09
5.3917012e-09
5.908347e-09
6.5544947e-09
7.3592483e-09
8.295951e-09
9.5043206e-09
1.0865566e-08
1.3207569e-08
1.5500925e-08
1.3228633e-08
1.2617966e-08
1.3390917e-08
1.4666461e-08
1.6319941e-08
1.8341165e-08
2.1151534e-08
2.7297698e-08
2.8238392e-08
1.9319143e-08
1.5374764e-08
1.4724979e-08
1.5098058e-08
1.5973776e-08
1.6800951e-08
1.8359972e-08
2.0668697e-08
1.6537486e-08
1.3907205e-08
1.3069674e-08
1.2806634e-08
1.2735193e-08
1.2684913e-08
1.2647439e-08
1.2668346e-08
1.286468e-08
1.3376272e-08
1.5757026e-08
1.7184807e-08
1.1505372e-08
8.9611038e-09
8.8805772e-09
9.3712536e-09
1.0147405e-08
1.0894273e-08
1.2139225e-08
1.4290782e-08
1.2136927e-08
1.0682808e-08
1.1058324e-08
1.203986e-08
1.3518796e-08
1.4891241e-08
1.882386e-08
2.3060883e-08
1.4408676e-08
1.2211051e-08
1.5392041e-08
1.9814701e-08
2.7119562e-08
2.9629507e-08
2.2201053e-08
2.3190366e-08
3.0988931e-08
4.2679217e-08
4.45211e-08
3.3534276e-08
3.6803551e-08
5.1823403e-08
6.3095167e-08
5.8595182e-08
6.1978114e-08
7.0024989e-08
7.3397097e-08
1.5558524e-08
1.1740316e-08
9.1969176e-09
1.4044661e-08
2.0593415e-08
1.603543e-08
1.2435497e-08
1.3102494e-08
1.5232954e-08
1.3598838e-08
1.1728968e-08
1.0948182e-08
1.1770239e-08
1.4602016e-08
1.292078e-08
1.1351906e-08
1.1145358e-08
1.0760561e-08
1.2164064e-08
1.4009436e-08
9.3360654e-09
8.1684293e-09
8.0202369e-09
8.0621548e-09
8.5575015e-09
9.216298e-09
1.0373868e-08
1.0929174e-08
1.0304567e-08
1.0890751e-08
1.2041405e-08
1.3589042e-08
1.5863885e-08
1.8606605e-08
2.097466e-08
1.5885167e-08
1.3983879e-08
1.4010856e-08
1.4808271e-08
1.6174614e-08
1.7879041e-08
1.9994443e-08
2.2443968e-08
2.5587009e-08
2.911505e-08
3.5093654e-08
4.1258999e-08
3.542118e-08
3.3295801e-08
3.4793155e-08
3.7826169e-08
4.1883361e-08
4.6900156e-08
5.3754867e-08
6.8509002e-08
7.2991542e-08
5.0568787e-08
3.9205104e-08
3.6184653e-08
3.6286226e-08
3.7934054e-08
3.9779308e-08
4.312304e-08
4.86976e-08
3.9812435e-08
3.3128877e-08
3.0367148e-08
2.930829e-08
2.8952071e-08
2.8795475e-08
2.8721344e-08
2.8795353e-08
2.9255402e-08
3.0442248e-08
3.5514015e-08
3.9669621e-08
2.6853614e-08
2.00214e-08
1.8783811e-08
1.9387939e-08
2.0889201e-08
2.2555368e-08
2.5110154e-08
2.9604989e-08
2.5762004e-08
2.2436239e-08
2.2581062e-08
2.4269447e-08
2.7074961e-08
2.9889277e-08
3.6943251e-08
4.5752023e-08
2.9496784e-08
2.3401224e-08
2.7316258e-08
3.4528676e-08
4.6424435e-08
5.2537408e-08
4.1263824e-08
4.1581602e-08
5.317933e-08
7.1945715e-08
7.8254019e-08
6.1901052e-08
6.6305343e-08
9.0619068e-08
1.1251025e-07
1.0909671e-07
1.1565273e-07
1.3073306e-07
1.3896955e-07
2.6535134e-08
2.0127207e-08
1.6992506e-08
2.708948e-08
3.8516354e-08
2.9851125e-08
2.426263e-08
2.6289666e-08
3.0523272e-08
2.7107154e-08
2.3741673e-08
2.2764866e-08
2.5388475e-08
3.1735104e-08
2.790993e-08
2.4718226e-08
2.4284067e-08
2.4019657e-08
2.8346337e-08
3.3527703e-08
2.2297013e-08
1.9532742e-08
1.9186646e-08
1.9336584e-08
2.0533371e-08
2.2158886e-08
2.5071698e-08
2.6744978e-08
2.525578e-08
2.665974e-08
2.9432579e-08
3.314504e-08
3.8560485e-08
4.5028967e-08
5.065529e-08
3.9229796e-08
3.4380046e-08
3.4298095e-08
3.6121354e-08
3.92793e-08
4.3205774e-08
4.8055904e-08
5.3638917e-08
6.0741215e-08
6.8687632e-08
8.1794914e-08
9.5984451e-08
8.3697357e-08
7.7990345e-08
8.0129647e-08
8.6132604e-08
9.4642513e-08
1.0539784e-07
1.1984105e-07
1.4991484e-07
1.6377176e-07
1.1802843e-07
9.0862035e-08
8.1151524e-08
7.9014709e-08
8.0872807e-08
8.3961052e-08
8.997379e-08
1.0141943e-07
8.5177526e-08
7.0903071e-08
6.3616243e-08
6.0152103e-08
5.8600789e-08
5.7865079e-08
5.7538111e-08
5.7638269e-08
5.8561435e-08
6.1005989e-08
7.059389e-08
8.0890379e-08
5.6660244e-08
4.1091212e-08
3.6326312e-08
3.5926538e-08
3.7826935e-08
4.0609578e-08
4.495963e-08
5.2970615e-08
4.7630127e-08
4.1525276e-08
4.0600774e-08
4.2635911e-08
4.6874273e-08
5.16578e-08
6.2649333e-08
7.8476424e-08
5.36314e-08
4.075894e-08
4.3644779e-08
5.2639644e-08
6.8627502e-08
7.9512696e-08
6.6084271e-08
6.4853811e-08
7.8669114e-08
1.0311468e-07
1.1596328e-07
9.7295674e-08
1.0175649e-07
1.332872e-07
1.6698713e-07
1.6935529e-07
1.806885e-07
2.0398409e-07
2.2003191e-07
3.9881864e-08
3.1269218e-08
2.8984325e-08
4.8103846e-08
6.5434551e-08
5.0773941e-08
4.332901e-08
4.8099651e-08
5.5323554e-08
4.8930322e-08
4.3847597e-08
4.3551526e-08
5.0283317e-08
6.2539456e-08
5.4550814e-08
4.888976e-08
4.8513777e-08
4.971428e-08
6.1052291e-08
7.2742983e-08
4.839914e-08
4.2494036e-08
4.1732165e-08
4.2162732e-08
4.4774816e-08
4.845753e-08
5.5095745e-08
5.9295422e-08
5.6110597e-08
5.9107747e-08
6.5017213e-08
7.2878744e-08
8.4174998e-08
9.7432129e-08
1.0903545e-07
8.7227918e-08
7.6303946e-08
7.5775683e-08
7.9432463e-08
8.5848928e-08
9.3797232e-08
1.0355382e-07
1.1470169e-07
1.2870679e-07
1.4429625e-07
1.6905788e-07
1.9675539e-07
1.7560078e-07
1.6365378e-07
1.65794e-07
1.7584416e-07
1.9115951e-07
2.1104981e-07
2.3734774e-07
2.8967124e-07
3.2052353e-07
2.4474712e-07
1.9161298e-07
1.6824791e-07
1.5972388e-07
1.5963322e-07
1.6321146e-07
1.7229429e-07
1.9251634e-07
1.6603929e-07
1.3975235e-07
1.2397639e-07
1.1512905e-07
1.1031607e-07
1.0766576e-07
1.0630903e-07
1.0611774e-07
1.0767478e-07
1.1225875e-07
1.2912278e-07
1.5093592e-07
1.1102781e-07
7.997849e-08
6.7305363e-08
6.3322883e-08
6.4257431e-08
6.7679396e-08
7.3971116e-08
8.6767256e-08
8.0286513e-08
7.0583558e-08
6.7430633e-08
6.8956927e-08
7.4277391e-08
8.1305246e-08
9.7176505e-08
1.2301084e-07
8.9806153e-08
6.7073955e-08
6.6452501e-08
7.5374781e-08
9.4381541e-08
1.0975442e-07
9.5516711e-08
9.2330028e-08
1.0653661e-07
1.3427596e-07
1.5365326e-07
1.3628532e-07
1.403704e-07
1.7583731e-07
2.1973508e-07
2.3142489e-07
2.4975843e-07
2.8166926e-07
3.0770842e-07
5.5609053e-08
4.6126652e-08
4.7233899e-08
8.1100112e-08
1.0525162e-07
8.2083815e-08
7.3106732e-08
8.2582238e-08
9.3902181e-08
8.3066384e-08
7.6525371e-08
7.8766622e-08
9.3255478e-08
1.1426952e-07
9.9133463e-08
9.0325579e-08
9.1287895e-08
9.7165433e-08
1.2255353e-07
1.4403661e-07
9.6677204e-08
8.5217909e-08
8.3621513e-08
8.4629649e-08
8.9800508e-08
9.7390475e-08
1.1089363e-07
1.1974318e-07
1.1368022e-07
1.1932719e-07
1.3038782e-07
1.4497672e-07
1.6549359e-07
1.8899846e-07
2.0971846e-07
1.7468311e-07
1.5323064e-07
1.5155725e-07
1.5794513e-07
1.6934226e-07
1.8341893e-07
2.0057575e-07
2.2001135e-07
2.4405655e-07
2.7062622e-07
3.110343e-07
3.5684084e-07
3.2677867e-07
3.0694431e-07
3.0823398e-07
3.2279461e-07
3.4660751e-07
3.7839404e-07
4.1984935e-07
4.9855949e-07
5.5060193e-07
4.468731e-07
3.6220333e-07
3.1844733e-07
2.9821222e-07
2.9256178e-07
2.9454564e-07
3.0598473e-07
3.3687136e-07
2.9753927e-07
2.5522063e-07
2.2657508e-07
2.0840665e-07
1.9711137e-07
1.9011528e-07
1.8607909e-07
1.8471191e-07
1.8688515e-07
1.9473364e-07
2.227268e-07
2.6278502e-07
2.0390426e-07
1.4918496e-07
1.2194983e-07
1.099043e-07
1.0703717e-07
1.0958523e-07
1.1734759e-07
1.3652353e-07
1.2847494e-07
1.1381832e-07
1.0695514e-07
1.0678208e-07
1.125313e-07
1.219153e-07
1.4415321e-07
1.8460527e-07
1.4279593e-07
1.0670607e-07
9.9593253e-08
1.0626855e-07
1.2749667e-07
1.4627857e-07
1.2985418e-07
1.2412609e-07
1.3729369e-07
1.6624467e-07
1.905284e-07
1.7582322e-07
1.8009156e-07
2.1665634e-07
2.6760539e-07
2.8933878e-07
3.1695013e-07
3.5759656e-07
3.9469111e-07
7.4989928e-08
6.6767479e-08
7.525441e-08
1.3248983e-07
1.6475283e-07
1.2931558e-07
1.1900421e-07
1.3562806e-07
1.5287176e-07
1.3597277e-07
1.2884094e-07
1.3645429e-07
1.6324047e-07
1.9595485e-07
1.702346e-07
1.5821384e-07
1.6322847e-07
1.7896511e-07
2.2680689e-07
2.5947831e-07
1.7847477e-07
1.5822334e-07
1.5509122e-07
1.5703803e-07
1.6625077e-07
1.8020399e-07
2.0431851e-07
2.200868e-07
2.0995152e-07
2.1925728e-07
2.3735372e-07
2.6101262e-07
2.9350957e-07
3.2980954e-07
3.6215677e-07
3.145717e-07
2.7801105e-07
2.741975e-07
2.8389663e-07
3.0158601e-07
3.2343955e-07
3.4991703e-07
3.7968148e-07
4.1594343e-07
4.5573946e-07
5.1368568e-07
5.7920767e-07
5.4301899e-07
5.1595289e-07
5.1608587e-07
5.3505252e-07
5.6782354e-07
6.1258571e-07
6.7031757e-07
7.7546195e-07
8.486616e-07
7.2507455e-07
6.1076757e-07
5.4394106e-07
5.082269e-07
4.9355196e-07
4.9133089e-07
5.0334118e-07
5.4459004e-07
4.9096608e-07
4.3054219e-07
3.8607623e-07
3.5518589e-07
3.3403444e-07
3.197501e-07
3.1075954e-07
3.0679718e-07
3.0930019e-07
3.2155271e-07
3.6493626e-07
4.2938771e-07
3.5040473e-07
2.6520818e-07
2.1567495e-07
1.8934328e-07
1.7816403e-07
1.7706018e-07
1.8495515e-07
2.1266721e-07
2.0097638e-07
1.7860493e-07
1.6588219e-07
1.6250512e-07
1.6791985e-07
1.7987821e-07
2.1091681e-07
2.735014e-07
2.206339e-07
1.6674071e-07
1.4969057e-07
1.5182073e-07
1.7505435e-07
1.9523115e-07
1.7348412e-07
1.6217526e-07
1.7303519e-07
2.0205123e-07
2.2718331e-07
2.1608608e-07
2.2008284e-07
2.556552e-07
3.0904811e-07
3.4155974e-07
3.7857094e-07
4.2771489e-07
4.760511e-07
1.0133727e-07
9.6986854e-08
1.187797e-07
2.1084943e-07
2.5287047e-07
2.0052679e-07
1.8893833e-07
2.1492484e-07
2.4091861e-07
2.1649182e-07
2.1023709e-07
2.2666936e-07
2.7002226e-07
3.1642984e-07
2.7748351e-07
2.6309121e-07
2.7586978e-07
3.0718418e-07
3.8371058e-07
4.2621842e-07
3.0435728e-07
2.7192909e-07
2.6630581e-07
2.6944786e-07
2.84116e-07
3.0674668e-07
3.4443712e-07
3.6863466e-07
3.538379e-07
3.6732595e-07
3.9346942e-07
4.2743052e-07
4.7310811e-07
5.2304496e-07
5.6822248e-07
5.1228068e-07
4.5746717e-07
4.505227e-07
4.6349796e-07
4.8785317e-07
5.1810707e-07
5.5464301e-07
5.9551905e-07
6.4466631e-07
6.9833813e-07
7.735187e-07
8.5763341e-07
8.1933385e-07
7.8756278e-07
7.8718954e-07
8.1035643e-07
8.5162724e-07
9.0889625e-07
9.8209354e-07
1.1107828e-06
1.2023871e-06
1.0674324e-06
9.3019007e-07
8.4245006e-07
7.9077355e-07
7.6538524e-07
7.5709472e-07
7.6763677e-07
8.1687972e-07
7.4884703e-07
6.7087147e-07
6.1017214e-07
5.651581e-07
5.3213897e-07
5.0839149e-07
4.9252401e-07
4.8459245e-07
4.8706397e-07
5.046087e-07
5.6659873e-07
6.5900216e-07
5.610578e-07
4.4315025e-07
3.6567229e-07
3.1891155e-07
2.9410577e-07
2.8563562e-07
2.9146239e-07
3.3007714e-07
3.1158872e-07
2.7679692e-07
2.5491216e-07
2.4633939e-07
2.5057974e-07
2.6564568e-07
3.0898916e-07
4.0405441e-07
3.3677693e-07
2.5858481e-07
2.2732024e-07
2.224432e-07
2.4785389e-07
2.7020953e-07
2.3386357e-07
2.1248589e-07
2.1868035e-07
2.4700682e-07
2.7024615e-07
2.5795788e-07
2.6074734e-07
2.9377328e-07
3.4685431e-07
3.8680649e-07
4.3269926e-07
4.8987564e-07
5.4893298e-07
1.4051381e-07
1.4325886e-07
1.8659415e-07
3.2517003e-07
3.7709789e-07
3.0476789e-07
2.9255532e-07
3.3020803e-07
3.6632638e-07
3.3367179e-07
3.2995624e-07
3.583434e-07
4.2118606e-07
4.8117022e-07
4.2839624e-07
4.132138e-07
4.3710172e-07
4.8792703e-07
5.948645e-07
6.4447175e-07
4.8020806e-07
4.3307684e-07
4.2393228e-07
4.2826434e-07
4.4922707e-07
4.8183088e-07
5.3413906e-07
5.6710107e-07
5.4805878e-07
5.6563745e-07
5.9977173e-07
6.4398196e-07
7.0247175e-07
7.6540583e-07
8.2331967e-07
7.6449115e-07
6.9045054e-07
6.7972079e-07
6.9538287e-07
7.2589157e-07
7.6419126e-07
8.1043625e-07
8.6209465e-07
9.2357618e-07
9.9055396e-07
1.0812297e-06
1.181342e-06
1.1447696e-06
1.1115046e-06
1.1120363e-06
1.1394192e-06
1.1883934e-06
1.2568394e-06
1.3436241e-06
1.4915047e-06
1.5977273e-06
1.4581028e-06
1.3057922e-06
1.2019821e-06
1.1365166e-06
1.100773e-06
1.0858219e-06
1.0933862e-06
1.1471987e-06
1.0663555e-06
9.7258111e-07
8.9707454e-07
8.3867448e-07
7.9381781e-07
7.6012068e-07
7.3668909e-07
7.2418166e-07
7.2655445e-07
7.4996078e-07
8.3171506e-07
9.5101705e-07
8.3710009e-07
6.8930325e-07
5.8308355e-07
5.1280551e-07
4.7050012e-07
4.513611e-07
4.527785e-07
5.0377116e-07
4.7526468e-07
4.228903e-07
3.8792879e-07
3.7177764e-07
3.7389969e-07
3.9288866e-07
4.525462e-07
5.9060102e-07
5.058252e-07
3.9660242e-07
3.4670118e-07
3.3244321e-07
3.6087808e-07
3.8836279e-07
3.2649666e-07
2.8505386e-07
2.8281205e-07
3.0972114e-07
3.2831207e-07
3.0670669e-07
3.0437889e-07
3.3321063e-07
3.8357602e-07
4.2698555e-07
4.7963157e-07
5.4367128e-07
6.1170422e-07
2.0139089e-07
2.1507749e-07
2.8948489e-07
4.8167956e-07
5.412642e-07
4.4855985e-07
4.3685687e-07
4.8797706e-07
5.3359052e-07
4.9321625e-07
4.9314617e-07
5.3496879e-07
6.1781741e-07
6.9027914e-07
6.2538965e-07
6.1120271e-07
6.4799059e-07
7.1915113e-07
8.5438557e-07
9.0872047e-07
7.0571397e-07
6.4277486e-07
6.292447e-07
6.3446261e-07
6.617613e-07
7.0428734e-07
7.7029056e-07
8.1144604e-07
7.8950652e-07
8.1069215e-07
8.5202321e-07
9.0553717e-07
9.7545993e-07
1.0498631e-06
1.1193856e-06
1.0622256e-06
9.6996788e-07
9.5531345e-07
9.7283837e-07
1.0084849e-06
1.0538563e-06
1.1087816e-06
1.1701985e-06
1.242751e-06
1.3217488e-06
1.4254886e-06
1.5385282e-06
1.5066224e-06
1.4750672e-06
1.47824e-06
1.5100734e-06
1.5658807e-06
1.6438405e-06
1.7419419e-06
1.9041259e-06
2.0210381e-06
1.8819997e-06
1.7216509e-06
1.6072596e-06
1.5315084e-06
1.4871764e-06
1.4661216e-06
1.4699857e-06
1.5249531e-06
1.4331095e-06
1.3262688e-06
1.2384481e-06
1.1686846e-06
1.1135258e-06
1.0709189e-06
1.0405635e-06
1.0238884e-06
1.0266037e-06
1.0562758e-06
1.1568236e-06
1.2995629e-06
1.1727192e-06
9.9998565e-07
8.6830795e-07
7.7551723e-07
7.1502218e-07
6.8386955e-07
6.7950353e-07
7.4254838e-07
7.0222746e-07
6.2901173e-07
5.7786678e-07
5.5204832e-07
5.5116812e-07
5.7494377e-07
6.5429715e-07
8.4067617e-07
7.3831516e-07
5.9608346e-07
5.235781e-07
4.9765472e-07
5.2955058e-07
5.6639443e-07
4.6714698e-07
3.9678311e-07
3.7965534e-07
4.0323348e-07
4.1741049e-07
3.7256983e-07
3.5673002e-07
3.783243e-07
4.2358745e-07
4.6577149e-07
5.2155816e-07
5.9038739e-07
6.6555396e-07
2.9471315e-07
3.2307311e-07
4.3537835e-07
6.7872077e-07
7.4390974e-07
6.3305831e-07
6.2332471e-07
6.8705914e-07
7.4164827e-07
6.9499922e-07
6.9909125e-07
7.5377824e-07
8.5557445e-07
9.3916743e-07
8.6524713e-07
8.5360658e-07
9.0339445e-07
9.9317449e-07
1.1522373e-06
1.2101563e-06
9.7577873e-07
8.9728078e-07
8.787985e-07
8.8436201e-07
9.1734348e-07
9.6863867e-07
1.046128e-06
1.0944864e-06
1.0715767e-06
1.0957886e-06
1.1431812e-06
1.2045991e-06
1.2840592e-06
1.3679149e-06
1.4471577e-06
1.3942245e-06
1.2862377e-06
1.2680405e-06
1.2866172e-06
1.3262178e-06
1.3774052e-06
1.4396316e-06
1.5094178e-06
1.5913942e-06
1.6807437e-06
1.7948401e-06
1.9176934e-06
1.8925704e-06
1.8655626e-06
1.8729962e-06
1.9095302e-06
1.9712531e-06
2.057044e-06
2.1641052e-06
2.3356004e-06
2.4595389e-06
2.3252895e-06
2.1629567e-06
2.0431029e-06
1.9608966e-06
1.9104651e-06
1.8846059e-06
1.8847647e-06
1.9379903e-06
1.8375095e-06
1.7206515e-06
1.6232685e-06
1.5445802e-06
1.4813171e-06
1.4316939e-06
1.395922e-06
1.3762712e-06
1.3802381e-06
1.4165531e-06
1.533471e-06
1.6951278e-06
1.5582133e-06
1.3656842e-06
1.2135087e-06
1.1017676e-06
1.0252182e-06
9.8286773e-07
9.7283895e-07
1.0464308e-06
9.9403093e-07
8.9971854e-07
8.3143518e-07
7.9503953e-07
7.9070731e-07
8.2002381e-07
9.2072263e-07
1.1555361e-06
1.0384218e-06
8.6433723e-07
7.6832538e-07
7.2960903e-07
7.6492505e-07
8.1184273e-07
6.7400352e-07
5.6513758e-07
5.266138e-07
5.4459662e-07
5.5484343e-07
4.7046685e-07
4.28214e-07
4.3700689e-07
4.7406859e-07
5.0898922e-07
5.6278115e-07
6.331743e-07
7.1310262e-07
4.2880791e-07
4.739448e-07
6.2538345e-07
9.0958973e-07
9.7896161e-07
8.5376495e-07
8.4703063e-07
9.217486e-07
9.8431709e-07
9.338674e-07
9.4239822e-07
1.0085706e-06
1.1267183e-06
1.2204507e-06
1.1407824e-06
1.1327859e-06
1.194501e-06
1.2999583e-06
1.477527e-06
1.5390176e-06
1.2827169e-06
1.1899578e-06
1.1662667e-06
1.1714764e-06
1.2090235e-06
1.2672709e-06
1.3534764e-06
1.4079654e-06
1.3862049e-06
1.4129436e-06
1.4651659e-06
1.5328873e-06
1.6197252e-06
1.7106819e-06
1.7971472e-06
1.749033e-06
1.6287253e-06
1.607759e-06
1.6267203e-06
1.6690902e-06
1.7247254e-06
1.7927013e-06
1.8692688e-06
1.9588018e-06
2.0566001e-06
2.1782406e-06
2.3079671e-06
2.2912126e-06
2.270981e-06
2.2838553e-06
2.325174e-06
2.3917765e-06
2.4839037e-06
2.597512e-06
2.7734275e-06
2.9012039e-06
2.7750881e-06
2.6159223e-06
2.4953071e-06
2.4103494e-06
2.3565145e-06
2.32748e-06
2.3244918e-06
2.3737623e-06
2.2674718e-06
2.1438637e-06
2.0398079e-06
1.9546825e-06
1.8856715e-06
1.8312326e-06
1.7919261e-06
1.7709304e-06
1.7773366e-06
1.8206366e-06
1.9507894e-06
2.1258014e-06
1.9819077e-06
1.7747269e-06
1.6072662e-06
1.4809152e-06
1.391783e-06
1.3403918e-06
1.3259944e-06
1.4071474e-06
1.343957e-06
1.2311322e-06
1.1471474e-06
1.1007739e-06
1.0932368e-06
1.1287663e-06
1.2505238e-06
1.5296217e-06
1.4026092e-06
1.2004102e-06
1.0823236e-06
1.0309685e-06
1.0690261e-06
1.1246269e-06
9.5379596e-07
8.0482241e-07
7.4012498e-07
7.5031292e-07
7.5394562e-07
6.2005212e-07
5.3448328e-07
5.219915e-07
5.463416e-07
5.6562775e-07
6.1017756e-07
6.7746143e-07
7.5864812e-07
6.0518367e-07
6.6738553e-07
8.5357498e-07
1.1653595e-06
1.2377625e-06
1.1031994e-06
1.1002674e-06
1.1839871e-06
1.253508e-06
1.2016642e-06
1.2149483e-06
1.2908394e-06
1.4220289e-06
1.5247131e-06
1.4429112e-06
1.4391451e-06
1.5110077e-06
1.6287619e-06
1.8198607e-06
1.8856866e-06
1.6177612e-06
1.5128594e-06
1.4839575e-06
1.4880331e-06
1.5287695e-06
1.5918667e-06
1.6839466e-06
1.743569e-06
1.7249348e-06
1.7538465e-06
1.8096647e-06
1.8819877e-06
1.9738702e-06
2.0692767e-06
2.159993e-06
2.115863e-06
1.987076e-06
1.9643187e-06
1.9831712e-06
2.0271668e-06
2.0858298e-06
2.1579041e-06
2.2395337e-06
2.3345934e-06
2.4387602e-06
2.5650689e-06
2.6989531e-06
2.6916443e-06
2.6798585e-06
2.6987564e-06
2.7446779e-06
2.8151568e-06
2.912071e-06
3.0297901e-06
3.2054825e-06
3.3345257e-06
3.2188837e-06
3.0675533e-06
2.9506065e-06
2.8662139e-06
2.8115835e-06
2.7811282e-06
2.7758491e-06
2.8196814e-06
2.7106982e-06
2.5839223e-06
2.4761988e-06
2.3871705e-06
2.3147762e-06
2.2577367e-06
2.2168942e-06
2.1963728e-06
2.2064601e-06
2.2570207e-06
2.3968752e-06
2.5795332e-06
2.4315862e-06
2.2149776e-06
2.0373108e-06
1.9006495e-06
1.8026493e-06
1.7448434e-06
1.7278366e-06
1.8129686e-06
1.740992e-06
1.6138456e-06
1.5172714e-06
1.4627538e-06
1.4529303e-06
1.4953608e-06
1.6364569e-06
1.952569e-06
1.8210855e-06
1.5966721e-06
1.4594938e-06
1.396369e-06
1.4358235e-06
1.4979995e-06
1.3032377e-06
1.1194819e-06
1.0282244e-06
1.0288486e-06
1.0249046e-06
8.3922099e-07
6.9663427e-07
6.5135772e-07
6.566524e-07
6.49019e-07
6.7424715e-07
7.3163849e-07
8.0905651e-07
8.1826157e-07
8.9668455e-07
1.1098815e-06
1.4365491e-06
1.510864e-06
1.3727919e-06
1.3739266e-06
1.4646079e-06
1.5401577e-06
1.4891653e-06
1.507568e-06
1.5913094e-06
1.7319548e-06
1.8416882e-06
1.7620312e-06
1.7626866e-06
1.8425523e-06
1.9692503e-06
2.1696309e-06
2.2410079e-06
1.9717969e-06
1.8575684e-06
1.8236538e-06
1.8258121e-06
1.8682419e-06
1.9340515e-06
2.0293454e-06
2.0932401e-06
2.0792902e-06
2.1101609e-06
2.1683498e-06
2.2434924e-06
2.3379408e-06
2.4348593e-06
2.5265186e-06
2.4847812e-06
2.3513757e-06
2.3278494e-06
2.3462323e-06
2.39073e-06
2.4509566e-06
2.525396e-06
2.6102561e-06
2.7086535e-06
2.8169555e-06
2.9449333e-06
3.080535e-06
3.0832595e-06
3.0809011e-06
3.1059388e-06
3.1559016e-06
3.2293861e-06
3.3293315e-06
3.4486355e-06
3.6198162e-06
3.748307e-06
3.6439843e-06
3.5054081e-06
3.3962493e-06
3.3153574e-06
3.2622546e-06
3.2321067e-06
3.2255533e-06
3.2630644e-06
3.1549382e-06
3.0288577e-06
2.9205436e-06
2.8302109e-06
2.7568259e-06
2.6992898e-06
2.6590296e-06
2.6408231e-06
2.6556845e-06
2.713706e-06
2.8594699e-06
3.0442392e-06
2.895e-06
2.6743295e-06
2.4914038e-06
2.3485545e-06
2.2452376e-06
2.1836515e-06
2.1656613e-06
2.2514557e-06
2.1729512e-06
2.0361348e-06
1.9308394e-06
1.8707772e-06
1.8600848e-06
1.9101623e-06
2.0678737e-06
2.4120058e-06
2.2811577e-06
2.0415799e-06
1.8892352e-06
1.8155963e-06
1.8547961e-06
1.9214812e-06
1.7114823e-06
1.501673e-06