/*--------------------------------*- C++ -*----------------------------------*\
| =========                 |                                                 |
| \\      /  F ield         | OpenFOAM: The Open Source CFD Toolbox           |
|  \\    /   O peration     | Version:  v2006                                 |
|   \\  /    A nd           | Website:  www.openfoam.com                      |
|    \\/     M anipulation  |                                                 |
\*---------------------------------------------------------------------------*/
FoamFile
{
    version     2.0;
    format      ascii;
    class       volScalarField;
    location    "4000";
    object      nutMean;
}
// * * * * * * * * * * * * * * * * * * * * * * * * * * * * * * * * * * * * * //

dimensions      [0 2 -1 0 0 0 0];


internalField   nonuniform List<scalar> 
103740
(
3.084992e-12
7.6504998e-13
4.9451084e-13
1.2829092e-11
1.5425872e-11
5.8587028e-12
3.8656667e-12
6.1800105e-12
7.9281686e-12
4.0868512e-12
4.0142907e-12
1.9310105e-12
4.7789243e-12
6.1634198e-12
3.357109e-12
2.6059746e-12
2.6544257e-12
8.7935825e-13
4.8641575e-12
4.425129e-12
1.7110036e-12
1.7138103e-12
1.2062413e-12
1.1508593e-12
9.9993848e-13
8.7318849e-13
1.1816605e-12
1.0395722e-12
7.0282866e-13
6.6345416e-13
5.6935975e-13
4.8963869e-13
5.170594e-13
2.9113047e-13
7.1630906e-13
4.6740315e-13
1.6444067e-13
1.8323259e-13
1.3583799e-13
1.5725302e-13
1.7190289e-13
2.124621e-13
2.7332411e-13
3.49224e-13
4.8863705e-13
6.3209575e-13
1.072514e-12
1.0086193e-12
9.2202015e-13
1.2639295e-12
1.5124918e-12
1.8937959e-12
2.3429732e-12
2.995303e-12
4.4598287e-12
6.6391377e-12
3.9759676e-12
2.3826255e-12
3.1376505e-12
3.2376958e-12
3.5557138e-12
4.2409428e-12
4.4491263e-12
6.8563222e-12
5.8144966e-12
3.2940429e-12
4.0905091e-12
3.9815953e-12
4.1948805e-12
4.4050549e-12
4.6353395e-12
5.0154198e-12
5.4639329e-12
6.4190591e-12
8.1246443e-12
1.3843788e-11
8.7596574e-12
2.3921779e-12
4.1420468e-12
3.8984635e-12
4.1536127e-12
4.9082637e-12
5.1230743e-12
8.2417379e-12
8.1231682e-12
3.7336746e-12
4.5846181e-12
5.0652722e-12
5.6655021e-12
7.5465511e-12
9.0250669e-12
2.1553115e-11
1.4040414e-11
6.1691695e-13
4.958454e-12
4.7556619e-12
7.5097173e-12
1.3462013e-11
5.9468909e-12
1.2626295e-12
3.7273195e-12
4.8490619e-12
8.5953511e-12
2.8076369e-12
4.7952999e-13
1.3446756e-12
2.2330093e-12
1.8973037e-12
8.5509152e-13
1.5002476e-12
1.8950096e-12
4.7586631e-12
2.3464581e-12
1.6744481e-12
1.2743461e-11
1.5649016e-11
6.9801172e-12
4.7570531e-12
6.7173076e-12
8.3606815e-12
4.9152164e-12
4.5774371e-12
2.7092666e-12
5.0935133e-12
6.4237209e-12
3.8539823e-12
3.0226575e-12
2.9923667e-12
1.4464482e-12
4.8426422e-12
4.4916922e-12
1.9369658e-12
1.8636978e-12
1.433067e-12
1.3924157e-12
1.3048625e-12
1.2582735e-12
1.6198161e-12
1.5762651e-12
1.310288e-12
1.3625095e-12
1.4034416e-12
1.4773472e-12
1.6691504e-12
1.7073098e-12
2.3994552e-12
2.1690861e-12
1.2484048e-12
1.0914602e-12
9.4373475e-13
9.228568e-13
9.6827277e-13
1.0823644e-12
1.2583771e-12
1.4969674e-12
1.8194282e-12
2.1865565e-12
2.8062978e-12
2.860925e-12
3.130586e-12
3.6556628e-12
3.7177026e-12
3.6302575e-12
3.6167757e-12
4.0060994e-12
5.4544159e-12
7.2935927e-12
4.6681863e-12
3.126323e-12
3.7063792e-12
3.7944569e-12
4.0939708e-12
4.6960769e-12
4.9746291e-12
7.1059788e-12
6.0453925e-12
3.8352881e-12
4.5109454e-12
4.5523296e-12
4.9335126e-12
5.3533139e-12
5.759784e-12
6.1900559e-12
6.6204717e-12
7.4405661e-12
9.1016207e-12
1.4135644e-11
9.4914342e-12
3.6596966e-12
4.9077582e-12
4.595676e-12
4.7354543e-12
5.3102472e-12
5.5280546e-12
8.2579467e-12
8.0326303e-12
4.1969568e-12
4.8835368e-12
5.3164134e-12
5.9205041e-12
7.6037251e-12
9.2914098e-12
2.0289687e-11
1.3632957e-11
2.0931457e-12
5.9685611e-12
6.1363857e-12
9.2086673e-12
1.4497643e-11
7.4378504e-12
3.4656545e-12
6.1959204e-12
8.2636918e-12
1.1576885e-11
5.4799584e-12
3.5309041e-12
5.3400726e-12
6.8632811e-12
6.0463026e-12
5.312366e-12
6.4298458e-12
7.0419086e-12
5.4538663e-11
4.1813069e-11
2.9938553e-11
5.438999e-11
7.5177635e-11
5.3387229e-11
3.8752831e-11
4.0658695e-11
4.6477814e-11
3.8311699e-11
3.196681e-11
2.7399392e-11
2.914007e-11
3.4416635e-11
2.7122875e-11
2.185856e-11
2.042198e-11
1.7561294e-11
2.1463497e-11
2.2075496e-11
1.2976435e-11
1.1484292e-11
1.0938771e-11
1.1102873e-11
1.1924503e-11
1.3293565e-11
1.5966924e-11
1.7770742e-11
1.789573e-11
1.9963274e-11
2.279528e-11
2.6159765e-11
3.0295435e-11
3.5599008e-11
4.3783427e-11
4.3905598e-11
2.7368884e-11
2.3055896e-11
2.0346611e-11
1.9386529e-11
2.0179351e-11
2.2140006e-11
2.5209147e-11
2.9510716e-11
3.4610048e-11
4.0740236e-11
4.7091729e-11
4.9605259e-11
5.7921505e-11
6.4057446e-11
6.0514927e-11
5.079942e-11
4.1640131e-11
3.8289883e-11
4.4791171e-11
4.6530917e-11
3.3980432e-11
2.8464373e-11
2.8160974e-11
2.8176759e-11
2.9199758e-11
3.0409529e-11
3.2742114e-11
3.7742861e-11
3.1906036e-11
2.7633557e-11
2.8927744e-11
3.1892963e-11
3.7026696e-11
4.3099972e-11
4.8440128e-11
5.1406952e-11
5.2867067e-11
5.379531e-11
5.9943721e-11
7.1333919e-11
5.6414275e-11
4.1107241e-11
3.7643997e-11
3.4522623e-11
3.2838148e-11
3.207612e-11
3.2588487e-11
3.8227143e-11
3.4741487e-11
2.793961e-11
2.801468e-11
2.8992726e-11
3.1607308e-11
3.5365738e-11
4.5861974e-11
6.8535377e-11
5.08578e-11
3.7238192e-11
4.7452397e-11
5.4610192e-11
7.4900903e-11
8.5745007e-11
6.1572235e-11
5.8841729e-11
7.6824848e-11
1.0445031e-10
1.1040478e-10
7.6721435e-11
7.6038407e-11
1.0313103e-10
1.2235335e-10
1.0898742e-10
1.1189915e-10
1.2641136e-10
1.3333488e-10
4.6305116e-10
3.6548242e-10
2.5649892e-10
3.845411e-10
5.5765149e-10
4.3296251e-10
3.1430045e-10
3.1498732e-10
3.5960178e-10
3.1396183e-10
2.5885725e-10
2.2940751e-10
2.2559857e-10
2.6787849e-10
2.2245751e-10
1.7979134e-10
1.6693613e-10
1.5038486e-10
1.5908829e-10
1.7291965e-10
1.077606e-10
9.3622031e-11
9.1654836e-11
9.3301919e-11
1.0147742e-10
1.1415771e-10
1.3584179e-10
1.5405619e-10
1.5723072e-10
1.7583438e-10
2.0193221e-10
2.3273897e-10
2.6993628e-10
3.1848046e-10
3.8688341e-10
3.9986187e-10
2.516996e-10
2.1045474e-10
1.8558196e-10
1.7620209e-10
1.830696e-10
2.0044801e-10
2.2788022e-10
2.6648423e-10
3.121003e-10
3.6721375e-10
4.2229563e-10
4.4503091e-10
5.20928e-10
5.7436905e-10
5.3906235e-10
4.4760171e-10
3.6254478e-10
3.2923282e-10
3.8026016e-10
3.7943831e-10
2.7817552e-10
2.3853062e-10
2.3329203e-10
2.3308951e-10
2.4068986e-10
2.4753299e-10
2.6755827e-10
2.9807334e-10
2.475742e-10
2.2468991e-10
2.3409245e-10
2.6210037e-10
3.0796418e-10
3.623805e-10
4.1026224e-10
4.3539779e-10
4.4618224e-10
4.4919677e-10
4.9523425e-10
5.5879056e-10
4.4203648e-10
3.4881564e-10
3.116121e-10
2.8514457e-10
2.6883593e-10
2.5757337e-10
2.6111993e-10
2.9227352e-10
2.5611686e-10
2.2290087e-10
2.2126869e-10
2.2750535e-10
2.4726825e-10
2.6939378e-10
3.5396267e-10
4.7243307e-10
3.4492997e-10
3.1594961e-10
3.8812795e-10
4.5303947e-10
6.1366148e-10
6.6089592e-10
4.922682e-10
5.0723674e-10
6.5632341e-10
8.9025907e-10
9.0722167e-10
6.5194534e-10
6.7271646e-10
9.1312082e-10
1.0749777e-09
9.5736605e-10
9.9460994e-10
1.1214269e-09
1.178026e-09
2.2676554e-09
1.7809126e-09
1.2226226e-09
1.7409932e-09
2.5990546e-09
2.0703612e-09
1.5037541e-09
1.4989062e-09
1.7340308e-09
1.5413913e-09
1.2727298e-09
1.1263308e-09
1.0971934e-09
1.3274818e-09
1.1241573e-09
9.1191516e-10
8.4434265e-10
7.5821708e-10
7.8529158e-10
8.9449571e-10
5.6808271e-10
4.899873e-10
4.807503e-10
4.884057e-10
5.3044735e-10
5.9445779e-10
7.0422654e-10
8.0771109e-10
8.2539431e-10
9.2173471e-10
1.0592254e-09
1.2216243e-09
1.4169266e-09
1.6668901e-09
2.0132294e-09
2.1427025e-09
1.3717002e-09
1.142718e-09
1.0073428e-09
9.5393193e-10
9.8929991e-10
1.081144e-09
1.227494e-09
1.4336683e-09
1.6778717e-09
1.9731462e-09
2.2659551e-09
2.3810561e-09
2.7688557e-09
3.0362045e-09
2.8453319e-09
2.3618198e-09
1.9163057e-09
1.7423006e-09
2.007628e-09
1.9869313e-09
1.441304e-09
1.2258046e-09
1.1981489e-09
1.200843e-09
1.2405125e-09
1.2743268e-09
1.3769365e-09
1.5260542e-09
1.2554348e-09
1.140213e-09
1.1929803e-09
1.3489517e-09
1.5966916e-09
1.8896568e-09
2.1470819e-09
2.2810497e-09
2.3372049e-09
2.350932e-09
2.5817142e-09
2.8609915e-09
2.2165622e-09
1.7690536e-09
1.5818441e-09
1.4517652e-09
1.3678535e-09
1.3073634e-09
1.3241393e-09
1.4645511e-09
1.2542566e-09
1.1010015e-09
1.0969721e-09
1.1317879e-09
1.2295508e-09
1.334535e-09
1.7448645e-09
2.2481979e-09
1.5766671e-09
1.4890478e-09
1.8528781e-09
2.1965852e-09
2.9492506e-09
3.1083385e-09
2.3149925e-09
2.4369919e-09
3.1848402e-09
4.3086449e-09
4.3281845e-09
3.1507845e-09
3.3390264e-09
4.5732112e-09
5.3759946e-09
4.8018315e-09
5.0314486e-09
5.6830621e-09
5.9547786e-09
7.3567871e-09
5.635505e-09
3.8401452e-09
5.4160964e-09
8.2471523e-09
6.6005892e-09
4.8584587e-09
4.893514e-09
5.74615e-09
5.1432638e-09
4.2632503e-09
3.7687988e-09
3.7238463e-09
4.6092994e-09
3.9467727e-09
3.2231017e-09
2.9675169e-09
2.655943e-09
2.7918984e-09
3.3412323e-09
2.148455e-09
1.8472591e-09
1.8103691e-09
1.8340743e-09
1.9830001e-09
2.2099717e-09
2.6145785e-09
3.0313608e-09
3.0913205e-09
3.4434275e-09
3.9522861e-09
4.5531327e-09
5.2698825e-09
6.1614362e-09
7.4267966e-09
8.0800685e-09
5.3450027e-09
4.4742195e-09
3.9591479e-09
3.7474718e-09
3.8797041e-09
4.2287816e-09
4.7885254e-09
5.5734581e-09
6.5014121e-09
7.6223798e-09
8.7273245e-09
9.0864127e-09
1.0346885e-08
1.1200589e-08
1.0559881e-08
8.8873422e-09
7.2895001e-09
6.6587863e-09
7.6566579e-09
7.6073563e-09
5.4257091e-09
4.5290363e-09
4.3949786e-09
4.4136258e-09
4.5607013e-09
4.6865354e-09
5.0485226e-09
5.5999392e-09
4.5810569e-09
4.1245631e-09
4.3209147e-09
4.9371663e-09
5.8878444e-09
6.9869349e-09
7.9305318e-09
8.4149344e-09
8.6163917e-09
8.6705441e-09
9.4684936e-09
1.0369198e-08
7.890836e-09
6.2857015e-09
5.615027e-09
5.1710932e-09
4.8723654e-09
4.6554218e-09
4.700233e-09
5.1637177e-09
4.340134e-09
3.7781347e-09
3.7583164e-09
3.8947602e-09
4.2305004e-09
4.5913799e-09
5.9253643e-09
7.5307168e-09
5.0724893e-09
4.6650362e-09
5.8047955e-09
7.0319057e-09
9.3608727e-09
9.8618111e-09
7.3174761e-09
7.6752051e-09
1.0077994e-08
1.3634559e-08
1.3752056e-08
1.0132172e-08
1.0907081e-08
1.5081306e-08
1.7892526e-08
1.6169809e-08
1.706524e-08
1.9354367e-08
2.0308838e-08
1.7308249e-08
1.2859904e-08
9.0318189e-09
1.305067e-08
1.9775435e-08
1.569614e-08
1.1911058e-08
1.2277347e-08
1.450279e-08
1.2941746e-08
1.0805973e-08
9.6546931e-09
9.8679082e-09
1.2390818e-08
1.0629179e-08
8.7579346e-09
8.0284173e-09
7.2783253e-09
7.9880641e-09
9.9230149e-09
6.4242772e-09
5.5280027e-09
5.4015143e-09
5.4562186e-09
5.8659311e-09
6.5121356e-09
7.7190908e-09
9.0030604e-09
9.1270947e-09
1.0115553e-08
1.1552142e-08
1.3238596e-08
1.5232786e-08
1.7652101e-08
2.1218015e-08
2.3222875e-08
1.6150861e-08
1.3760096e-08
1.2333e-08
1.1732094e-08
1.2138556e-08
1.3181357e-08
1.484393e-08
1.7137559e-08
1.9820763e-08
2.3071313e-08
2.626387e-08
2.6860756e-08
2.952571e-08
3.1401928e-08
3.0043724e-08
2.6135273e-08
2.205133e-08
2.0353692e-08
2.33382e-08
2.35269e-08
1.6600047e-08
1.3517531e-08
1.287605e-08
1.2867466e-08
1.3265058e-08
1.3632855e-08
1.4610137e-08
1.6267791e-08
1.337322e-08
1.1897352e-08
1.2374597e-08
1.4189275e-08
1.6899529e-08
1.9871835e-08
2.2310765e-08
2.3544518e-08
2.4072272e-08
2.4277562e-08
2.6370684e-08
2.8695266e-08
2.1763986e-08
1.7271523e-08
1.5346993e-08
1.4150141e-08
1.3335671e-08
1.2755457e-08
1.2820121e-08
1.4033947e-08
1.1734567e-08
1.0051542e-08
9.8602807e-09
1.0205495e-08
1.1066949e-08
1.2038464e-08
1.5269868e-08
1.9468075e-08
1.2918802e-08
1.1194125e-08
1.3439388e-08
1.642928e-08
2.1648132e-08
2.3270015e-08
1.7475605e-08
1.7820081e-08
2.2993101e-08
3.0978046e-08
3.2055517e-08
2.4165872e-08
2.5825537e-08
3.551934e-08
4.2944699e-08
3.9854531e-08
4.2196781e-08
4.802728e-08
5.0797766e-08
3.1963754e-08
2.3392902e-08
1.7562571e-08
2.6482407e-08
3.8858393e-08
3.056701e-08
2.4237074e-08
2.5666187e-08
3.012198e-08
2.6671906e-08
2.2585037e-08
2.0694617e-08
2.2053685e-08
2.7694928e-08
2.3649865e-08
1.9714372e-08
1.8143092e-08
1.6998904e-08
1.9710052e-08
2.4867164e-08
1.6166408e-08
1.3965664e-08
1.359216e-08
1.3695722e-08
1.4649789e-08
1.6243487e-08
1.9290935e-08
2.2449962e-08
2.2547973e-08
2.4773747e-08
2.8022612e-08
3.1805611e-08
3.6285848e-08
4.1655643e-08
4.9786376e-08
5.4150555e-08
3.9728266e-08
3.4747091e-08
3.1833813e-08
3.0636752e-08
3.1742376e-08
3.431034e-08
3.8310666e-08
4.3683948e-08
4.988091e-08
5.7496356e-08
6.5029905e-08
6.5134214e-08
6.8953706e-08
7.2130906e-08
7.0246394e-08
6.3714938e-08
5.6115556e-08
5.270197e-08
6.0135367e-08
6.1886359e-08
4.3922235e-08
3.5009629e-08
3.2495527e-08
3.2019076e-08
3.275288e-08
3.359195e-08
3.5751098e-08
3.9956761e-08
3.3366349e-08
2.9420661e-08
3.0116884e-08
3.4107148e-08
3.9869591e-08
4.5820116e-08
5.0504729e-08
5.287317e-08
5.395985e-08
5.4611601e-08
5.9137054e-08
6.4380441e-08
4.9276108e-08
3.9012371e-08
3.4431839e-08
3.1700428e-08
2.9883676e-08
2.8647874e-08
2.8679769e-08
3.1341493e-08
2.6487736e-08
2.2389339e-08
2.1463496e-08
2.1979398e-08
2.3693164e-08
2.5839771e-08
3.2201557e-08
4.1541546e-08
2.8074024e-08
2.2838803e-08
2.5681185e-08
3.0859249e-08
3.9947974e-08
4.4139373e-08
3.4227168e-08
3.3636378e-08
4.1692826e-08
5.5230873e-08
5.9180665e-08
4.6351273e-08
4.8381333e-08
6.4789274e-08
7.9742059e-08
7.6917144e-08
8.1581729e-08
9.2889649e-08
9.9497232e-08
4.9896587e-08
3.6936316e-08
3.0386707e-08
4.7848274e-08
6.6761132e-08
5.2424638e-08
4.3657641e-08
4.7306599e-08
5.4649627e-08
4.8100977e-08
4.1648553e-08
3.9536904e-08
4.376864e-08
5.4272849e-08
4.6099148e-08
3.9054139e-08
3.6509889e-08
3.5807598e-08
4.3580843e-08
5.4625201e-08
3.5728635e-08
3.1039584e-08
3.0099833e-08
3.0282431e-08
3.2275638e-08
3.5782942e-08
4.2432949e-08
4.8908959e-08
4.8599201e-08
5.2805838e-08
5.9022301e-08
6.6248834e-08
7.4962776e-08
8.5433872e-08
1.0150584e-07
1.0932805e-07
8.3774498e-08
7.524025e-08
7.0645731e-08
6.8999155e-08
7.1686076e-08
7.7119124e-08
8.5283379e-08
9.5937033e-08
1.0808906e-07
1.2332511e-07
1.3866161e-07
1.366896e-07
1.4036348e-07
1.4487024e-07
1.4324707e-07
1.349137e-07
1.2413449e-07
1.1896946e-07
1.3442342e-07
1.4099985e-07
1.02914e-07
8.1406451e-08
7.3775585e-08
7.1307484e-08
7.1986576e-08
7.3413254e-08
7.7453549e-08
8.6598283e-08
7.3995656e-08
6.5109064e-08
6.5221744e-08
7.1748455e-08
8.1134767e-08
9.0505497e-08
9.7740817e-08
1.0145712e-07
1.0334276e-07
1.0497849e-07
1.1361638e-07
1.2452208e-07
9.6784632e-08
7.6417212e-08
6.6859329e-08
6.1284584e-08
5.7721451e-08
5.5454019e-08
5.5378816e-08
6.0451903e-08
5.2196021e-08
4.395982e-08
4.1157378e-08
4.1410769e-08
4.4144281e-08
4.8156001e-08
5.9071768e-08
7.7080785e-08
5.4443723e-08
4.2302469e-08
4.4089141e-08
5.0847493e-08
6.399528e-08
7.2137524e-08
5.8326905e-08
5.5535467e-08
6.5389004e-08
8.4016981e-08
9.2624067e-08
7.6062244e-08
7.7324768e-08
9.9322388e-08
1.2314027e-07
1.2378069e-07
1.3184607e-07
1.4974415e-07
1.6253936e-07
7.0090959e-08
5.3863935e-08
4.9088417e-08
7.9983788e-08
1.0555821e-07
8.3342805e-08
7.2675853e-08
7.9985056e-08
9.0690318e-08
7.9782785e-08
7.1081069e-08
7.0089499e-08
7.9795733e-08
9.7001886e-08
8.2253161e-08
7.1202373e-08
6.8277852e-08
7.0187194e-08
8.8158406e-08
1.0799278e-07
7.1421383e-08
6.2424813e-08
6.0395557e-08
6.0733689e-08
6.4577148e-08
7.1545103e-08
8.4371079e-08
9.5937721e-08
9.4402109e-08
1.0142396e-07
1.1203995e-07
1.2449529e-07
1.3994404e-07
1.5868535e-07
1.8744753e-07
2.0023426e-07
1.5861327e-07
1.4559002e-07
1.3960698e-07
1.3817376e-07
1.438627e-07
1.5400214e-07
1.6865238e-07
1.8728099e-07
2.0835311e-07
2.3508083e-07
2.6244234e-07
2.5683841e-07
2.5846876e-07
2.640028e-07
2.6368611e-07
2.5517442e-07
2.4282533e-07
2.3671538e-07
2.632596e-07
2.7839209e-07
2.1292875e-07
1.7050257e-07
1.5255507e-07
1.4498409e-07
1.4420955e-07
1.4582899e-07
1.5229899e-07
1.69386e-07
1.4857672e-07
1.3154892e-07
1.2902286e-07
1.3689451e-07
1.4904967e-07
1.6122975e-07
1.7066824e-07
1.7563385e-07
1.7850533e-07
1.8192514e-07
1.971558e-07
2.1815552e-07
1.7311582e-07
1.3632628e-07
1.1790889e-07
1.072046e-07
1.0060478e-07
9.6676391e-08
9.6360006e-08
1.0508115e-07
9.2942029e-08
7.8710032e-08
7.2399909e-08
7.1484582e-08
7.5118108e-08
8.1671872e-08
9.8817239e-08
1.2984376e-07
9.6937778e-08
7.3665122e-08
7.1651198e-08
7.8371917e-08
9.5143587e-08
1.0781045e-07
9.0456656e-08
8.4247395e-08
9.4235201e-08
1.1644526e-07
1.3016309e-07
1.1183199e-07
1.1132395e-07
1.3642483e-07
1.6820549e-07
1.7510008e-07
1.8796596e-07
2.1272054e-07
2.3347981e-07
9.3001826e-08
7.5663198e-08
7.6336678e-08
1.2713822e-07
1.5950214e-07
1.2695104e-07
1.1497464e-07
1.2765355e-07
1.4247295e-07
1.2599067e-07
1.1572881e-07
1.1803963e-07
1.3665014e-07
1.6261011e-07
1.3841855e-07
1.2294382e-07
1.2142267e-07
1.298079e-07
1.6511435e-07
1.9563894e-07
1.3164972e-07
1.1578058e-07
1.1192575e-07
1.1259748e-07
1.1950552e-07
1.3212683e-07
1.5443269e-07
1.7301092e-07
1.6902777e-07
1.7977544e-07
1.9648093e-07
2.164148e-07
2.4180228e-07
2.7282649e-07
3.197972e-07
3.3950868e-07
2.767029e-07
2.5819664e-07
2.5130716e-07
2.5101993e-07
2.6131635e-07
2.7809029e-07
3.0151106e-07
3.3065963e-07
3.6336942e-07
4.047642e-07
4.4749624e-07
4.3807022e-07
4.362173e-07
4.4222529e-07
4.4392645e-07
4.3669431e-07
4.2445034e-07
4.1821659e-07
4.5621285e-07
4.8099746e-07
3.8748135e-07
3.1886977e-07
2.855441e-07
2.6890047e-07
2.6433125e-07
2.6500258e-07
2.73914e-07
3.0141426e-07
2.7134597e-07
2.4356488e-07
2.3562365e-07
2.4224724e-07
2.5496708e-07
2.682548e-07
2.7877667e-07
2.8444009e-07
2.8835774e-07
2.945905e-07
3.1975702e-07
3.5643201e-07
2.9038521e-07
2.2934514e-07
1.9613095e-07
1.7644338e-07
1.6445695e-07
1.5762519e-07
1.5666581e-07
1.7061981e-07
1.5401104e-07
1.3171872e-07
1.1995015e-07
1.1660623e-07
1.2077025e-07
1.304747e-07
1.559362e-07
2.0549362e-07
1.6175517e-07
1.2257889e-07
1.1315573e-07
1.1752402e-07
1.373256e-07
1.5429711e-07
1.3228337e-07
1.213099e-07
1.2974783e-07
1.5386918e-07
1.7179642e-07
1.5245671e-07
1.4967796e-07
1.7525956e-07
2.1257002e-07
2.2658127e-07
2.4558199e-07
2.7700982e-07
3.0652432e-07
1.2060717e-07
1.0524145e-07
1.1640207e-07
1.9574796e-07
2.3572113e-07
1.8894575e-07
1.7597581e-07
1.9614715e-07
2.1672368e-07
1.9340515e-07
1.8275474e-07
1.9122076e-07
2.2277478e-07
2.5997561e-07
2.2340976e-07
2.038816e-07
2.0690496e-07
2.2708156e-07
2.8716529e-07
3.2793604e-07
2.2626583e-07
2.003879e-07
1.9377233e-07
1.9508019e-07
2.0661026e-07
2.2749728e-07
2.6272118e-07
2.8989005e-07
2.8222525e-07
2.9755143e-07
3.2199906e-07
3.5172406e-07
3.9025957e-07
4.3742373e-07
5.070658e-07
5.3570843e-07
4.487078e-07
4.2388054e-07
4.1632484e-07
4.1787648e-07
4.338678e-07
4.5854429e-07
4.9215396e-07
5.3330295e-07
5.7915963e-07
6.3650477e-07
6.9566947e-07
6.839353e-07
6.7843588e-07
6.8442554e-07
6.8825592e-07
6.8291147e-07
6.7148766e-07
6.6518245e-07
7.1187906e-07
7.4415111e-07
6.2714816e-07
5.3267069e-07
4.8188464e-07
4.532943e-07
4.4261872e-07
4.4082348e-07
4.5158883e-07
4.9030266e-07
4.5169854e-07
4.1267581e-07
3.9754118e-07
4.0040964e-07
4.1115082e-07
4.233252e-07
4.3331625e-07
4.3876227e-07
4.4365896e-07
4.5378715e-07
4.9240806e-07
5.4963509e-07
4.6139495e-07
3.6943094e-07
3.1431574e-07
2.8017565e-07
2.5904064e-07
2.4709744e-07
2.4451625e-07
2.6564804e-07
2.4312005e-07
2.1011724e-07
1.906017e-07
1.8331302e-07
1.8748326e-07
2.0095002e-07
2.3741996e-07
3.1276068e-07
2.5687575e-07
1.9669318e-07
1.7569329e-07
1.7495176e-07
1.973634e-07
2.1769395e-07
1.8809055e-07
1.6969492e-07
1.7487385e-07
1.996377e-07
2.1910768e-07
1.9883468e-07
1.9270583e-07
2.1648622e-07
2.5593219e-07
2.7674127e-07
3.0198133e-07
3.3957975e-07
3.7777142e-07
1.570912e-07
1.4734972e-07
1.75658e-07
2.9437841e-07
3.4339989e-07
2.7734992e-07
2.6331e-07
2.9326127e-07
3.2243787e-07
2.9098171e-07
2.8149796e-07
2.9929895e-07
3.47699e-07
3.9871644e-07
3.4751826e-07
3.2523384e-07
3.3672798e-07
3.7401551e-07
4.6343754e-07
5.1142389e-07
3.6456412e-07
3.2551393e-07
3.1506731e-07
3.1732691e-07
3.3498405e-07
3.6640767e-07
4.169318e-07
4.5341556e-07
4.4145259e-07
4.6191827e-07
4.9526226e-07
5.365069e-07
5.9046376e-07
6.5620664e-07
7.5035395e-07
7.8945539e-07
6.7889641e-07
6.4741751e-07
6.3902926e-07
6.4254334e-07
6.643784e-07
6.9715415e-07
7.4112804e-07
7.9436805e-07
8.5341849e-07
9.2610768e-07
1.0006581e-06
9.8889584e-07
9.8070407e-07
9.8646671e-07
9.9217305e-07
9.8850661e-07
9.7758711e-07
9.7048533e-07
1.0215078e-06
1.0570619e-06
9.2240579e-07
8.0625856e-07
7.3954266e-07
6.985004e-07
6.8043332e-07
6.7495438e-07
6.8677035e-07
7.3575223e-07
6.9063653e-07
6.4220341e-07
6.2024162e-07
6.1843804e-07
6.2568607e-07
6.3508163e-07
6.4319429e-07
6.4758917e-07
6.5341839e-07
6.6831817e-07
7.2280941e-07
8.0251493e-07
6.9373257e-07
5.6876377e-07
4.8643067e-07
4.3231298e-07
3.9750246e-07
3.7742782e-07
3.7155458e-07
4.0168788e-07
3.7117001e-07
3.2387977e-07
2.9383262e-07
2.8083345e-07
2.8437557e-07
3.0231761e-07
3.5309648e-07
4.6282933e-07
3.9336728e-07
3.0643938e-07
2.6924028e-07
2.6036317e-07
2.8498826e-07
3.0880276e-07
2.6498377e-07
2.3488418e-07
2.3454702e-07
2.589939e-07
2.7775336e-07
2.5281968e-07
2.4189637e-07
2.618807e-07
3.0067712e-07
3.2554772e-07
3.5617461e-07
3.9913898e-07
4.452388e-07
2.0973582e-07
2.0925008e-07
2.6298214e-07
4.318166e-07
4.9058857e-07
4.0136159e-07
3.8645389e-07
4.2845921e-07
4.6871083e-07
4.2817453e-07
4.2155744e-07
4.5168751e-07
5.2009379e-07
5.8591817e-07
5.1937264e-07
4.9625436e-07
5.1954178e-07
5.7716919e-07
6.958886e-07
7.4714804e-07
5.5226625e-07
4.9765939e-07
4.8229619e-07
4.8560568e-07
5.1025157e-07
5.5325809e-07
6.1953367e-07
6.6518142e-07
6.4933268e-07
6.7510985e-07
7.1778947e-07
7.7134758e-07
8.4162132e-07
9.2645029e-07
1.0441341e-06
1.0943973e-06
9.6422866e-07
9.2648431e-07
9.1688337e-07
9.220151e-07
9.4905444e-07
9.8923274e-07
1.0427554e-06
1.1071119e-06
1.1783312e-06
1.26455e-06
1.352221e-06
1.3425158e-06
1.3330559e-06
1.3386475e-06
1.3459026e-06
1.3432312e-06
1.331934e-06
1.3228717e-06
1.3735858e-06
1.4075356e-06
1.2602921e-06
1.1279411e-06
1.0489209e-06
9.9702812e-07
9.7153707e-07
9.6188683e-07
9.7416689e-07
1.0314279e-06
9.8240065e-07
9.2759819e-07
9.0085415e-07
8.9525054e-07
8.9908252e-07
9.0529666e-07
9.1107523e-07
9.1413779e-07
9.2107304e-07
9.4127047e-07
1.0121316e-06
1.1123061e-06
9.8626563e-07
8.3123172e-07
7.2082573e-07
6.4382213e-07
5.9194243e-07
5.6097365e-07
5.4994601e-07
5.8982841e-07
5.4914683e-07
4.8413583e-07
4.4078338e-07
4.2028666e-07
4.2253304e-07
4.4575582e-07
5.1419794e-07
6.6602388e-07
5.8184118e-07
4.6347557e-07
4.059679e-07
3.861371e-07
4.1278411e-07
4.419507e-07
3.748351e-07
3.2573204e-07
3.1643078e-07
3.3955193e-07
3.5529725e-07
3.1927591e-07
3.0004599e-07
3.1425738e-07
3.4991973e-07
3.7527903e-07
4.0908045e-07
4.5599715e-07
5.0832005e-07
2.8816486e-07
3.0090148e-07
3.8919028e-07
6.1555332e-07
6.8227753e-07
5.6842867e-07
5.5369752e-07
6.1007987e-07
6.6132277e-07
6.1169124e-07
6.0925914e-07
6.5353967e-07
7.4323214e-07
8.232663e-07
7.4249e-07
7.2040057e-07
7.569846e-07
8.3507209e-07
9.7973675e-07
1.0313376e-06
7.8990873e-07
7.1858758e-07
6.9732437e-07
7.0139321e-07
7.3292471e-07
7.8706824e-07
8.6778988e-07
9.2196308e-07
9.036008e-07
9.345711e-07
9.8642221e-07
1.0522098e-06
1.1384318e-06
1.2412029e-06
1.3793817e-06
1.4406066e-06
1.2967956e-06
1.2538958e-06
1.242792e-06
1.2490214e-06
1.2802122e-06
1.3265905e-06
1.3882675e-06
1.4621401e-06
1.5438663e-06
1.6411824e-06
1.7392081e-06
1.7329857e-06
1.7236532e-06
1.729286e-06
1.7376997e-06
1.7351418e-06
1.7224135e-06
1.7101138e-06
1.7562798e-06
1.7839003e-06
1.6280931e-06
1.4846994e-06
1.3976119e-06
1.3377192e-06
1.3057591e-06
1.2922578e-06
1.3048283e-06
1.3681074e-06
1.3177041e-06
1.2599473e-06
1.2312211e-06
1.2236741e-06
1.2253338e-06
1.2291175e-06
1.233042e-06
1.2351624e-06
1.2436826e-06
1.2694069e-06
1.3553104e-06
1.4718995e-06
1.331769e-06
1.1518592e-06
1.0164552e-06
9.1732701e-07
8.4769064e-07
8.0459749e-07
7.8723148e-07
8.3607044e-07
7.8379964e-07
6.9922696e-07
6.4078586e-07
6.1155333e-07
6.1202827e-07
6.4130892e-07
7.2988415e-07
9.2674752e-07
8.2853955e-07
6.785715e-07
5.9788395e-07
5.6483264e-07
5.9308996e-07
6.2993436e-07
5.3097078e-07
4.5510927e-07
4.317803e-07
4.5180371e-07
4.6437066e-07
4.0660629e-07
3.7233517e-07
3.7792503e-07
4.080951e-07
4.2971986e-07
4.632891e-07
5.1199545e-07
5.6873144e-07
4.0375296e-07
4.3328274e-07
5.630559e-07
8.4593135e-07
9.1857333e-07
7.8140365e-07
7.6794901e-07
8.3898618e-07
9.0038912e-07
8.4285685e-07
8.4528637e-07
9.0379132e-07
1.0141345e-06
1.1067034e-06
1.0143109e-06
9.9450157e-07
1.0439569e-06
1.1401524e-06
1.3061742e-06
1.356875e-06
1.0736513e-06
9.8554578e-07
9.5754656e-07
9.6170287e-07
9.9916913e-07
1.0628866e-06
1.1557471e-06
1.2176957e-06
1.1987937e-06
1.2346884e-06
1.2951335e-06
1.372384e-06
1.4732079e-06
1.5916077e-06
1.7460402e-06
1.8172478e-06
1.6665424e-06
1.6202145e-06
1.6075966e-06
1.6144512e-06
1.6486247e-06
1.6997726e-06
1.7679116e-06
1.8493557e-06
1.939547e-06
2.0452226e-06
2.150679e-06
2.148779e-06
2.1405667e-06
2.1464617e-06
2.155525e-06
2.1520978e-06
2.1369736e-06
2.1202204e-06
2.1581863e-06
2.1753592e-06
2.0140872e-06
1.8641351e-06
1.7730294e-06
1.7085075e-06
1.6716961e-06
1.6553324e-06
1.6684354e-06
1.735668e-06
1.6864492e-06
1.6290095e-06
1.6011062e-06
1.5937778e-06
1.5949725e-06
1.5977458e-06
1.6009011e-06
1.60297e-06
1.6138209e-06
1.6451153e-06
1.7435716e-06
1.8716136e-06
1.7202293e-06
1.5208804e-06
1.3653079e-06
1.2472944e-06
1.1617279e-06
1.1071012e-06
1.0833573e-06
1.1391801e-06
1.0749263e-06
9.7117657e-07
8.976142e-07
8.5948719e-07
8.5818049e-07
8.9417269e-07
1.0037134e-06
1.243927e-06
1.1340674e-06
9.5509741e-07
8.5138352e-07
8.0434451e-07
8.3357167e-07
8.7793444e-07
7.4620469e-07
6.3655882e-07
5.9393238e-07
6.0876163e-07
6.1801451e-07
5.2653687e-07
4.6716194e-07
4.5957265e-07
4.8152457e-07
4.9425585e-07
5.2301867e-07
5.7046537e-07
6.2919575e-07
5.6585503e-07
6.1410545e-07
7.8742822e-07
1.1177739e-06
1.1947332e-06
1.0376088e-06
1.0264682e-06
1.1103955e-06
1.180693e-06
1.1176543e-06
1.125215e-06
1.1968024e-06
1.3256749e-06
1.4289487e-06
1.3278406e-06
1.3108462e-06
1.3714966e-06
1.4823275e-06
1.6648762e-06
1.7149367e-06
1.3970615e-06
1.2928355e-06
1.2574352e-06
1.2607239e-06
1.3026546e-06
1.3738098e-06
1.4761545e-06
1.5451595e-06
1.5279067e-06
1.5683821e-06
1.636543e-06
1.7239573e-06
1.8372987e-06
1.9682523e-06
2.134161e-06
2.2137978e-06
2.0628632e-06
2.0152823e-06
2.0014848e-06
2.0086428e-06
2.0446677e-06
2.0990666e-06
2.1718186e-06
2.2586742e-06
2.3550332e-06
2.4661566e-06
2.5761147e-06
2.5788439e-06
2.5722863e-06
2.5785111e-06
2.5875552e-06
2.5821947e-06
2.563968e-06
2.5416579e-06
2.5683771e-06
2.5718063e-06
2.4074767e-06
2.2548478e-06
2.1633631e-06
2.0975444e-06
2.0579184e-06
2.0401397e-06
2.054344e-06
2.1239262e-06
2.0784817e-06
2.0243837e-06
1.9998658e-06
1.9948937e-06
1.9973964e-06
2.0008169e-06
2.0045193e-06
2.0077101e-06
2.0218018e-06
2.0586008e-06
2.1665916e-06
2.3005752e-06
2.1407546e-06
1.927186e-06
1.7565905e-06
1.6238554e-06
1.5255012e-06
1.4611589e-06
1.4319454e-06
1.4917324e-06
1.4161961e-06
1.2956413e-06
1.2086489e-06
1.1626112e-06
1.1600447e-06
1.2032601e-06
1.3329512e-06
1.6112862e-06
1.4932323e-06
1.2894793e-06
1.1650231e-06
1.1046657e-06
1.1340147e-06
1.184135e-06
1.0241678e-06
8.8005248e-07
8.1459294e-07
8.2216588e-07
8.2541938e-07
6.9353709e-07
5.9663213e-07
5.6916201e-07
5.7925658e-07
5.7638412e-07
5.9431073e-07
6.3641223e-07
6.9390058e-07
7.7743198e-07
8.448445e-07
1.0582589e-06
1.4230307e-06
1.5027936e-06
1.3304511e-06
1.3223591e-06
1.4167308e-06
1.4945694e-06
1.4286019e-06
1.4414461e-06
1.5243498e-06
1.6685173e-06
1.7804416e-06
1.6739441e-06
1.6597286e-06
1.7293155e-06
1.8510338e-06
2.0456185e-06
2.0960319e-06
1.7524788e-06
1.633305e-06
1.5900233e-06
1.5913327e-06
1.6360344e-06
1.7123166e-06
1.821484e-06
1.8968343e-06
1.8833188e-06
1.9279685e-06
2.0027044e-06
2.0985414e-06
2.221752e-06
2.3617223e-06
2.5342667e-06
2.6203853e-06
2.4752545e-06
2.4288406e-06
2.4145282e-06
2.421838e-06
2.4586715e-06
2.5147975e-06
2.5902022e-06
2.6801512e-06
2.7801822e-06
2.8937157e-06
3.0052887e-06
3.0124381e-06
3.0077849e-06
3.0139934e-06
3.0222166e-06
3.0139076e-06
2.9920284e-06
2.9632011e-06
2.976181e-06
2.9635292e-06
2.7979264e-06
2.64618e-06
2.5574223e-06
2.4934443e-06
2.4532677e-06
2.4358061e-06
2.4519292e-06
2.5228201e-06
2.4836913e-06
2.4358339e-06
2.4170064e-06
2.4163367e-06
2.4219174e-06
2.4275732e-06
2.4332208e-06
2.4388501e-06
2.4570762e-06
2.4991697e-06
2.6134477e-06
2.748092e-06
2.5825757e-06
2.3598495e-06
2.1791869e-06
2.035966e-06
1.9283017e-06
1.8565803e-06
1.82324e-06
1.8837032e-06
1.7982239e-06
1.6644019e-06
1.5668125e-06
1.5146616e-06
1.5117415e-06
1.5625663e-06
1.7104095e-06
2.0191642e-06
1.896603e-06
1.6734869e-06
1.5316228e-06
1.4593193e-06
1.487706e-06
1.5413543e-06
1.3605249e-06
1.1866493e-06
1.0983081e-06
1.0969962e-06
1.0937041e-06
9.1865926e-07
7.7593148e-07
7.1991589e-07
7.1330088e-07
6.8634992e-07
6.8560671e-07
7.1686594e-07
7.6883164e-07
1.0344158e-06
1.1204464e-06
1.3667293e-06
1.7525283e-06
1.8333757e-06
1.6516172e-06
1.6466802e-06
1.7490477e-06
1.8330628e-06
1.7666503e-06
1.7849299e-06
1.8770893e-06
2.0327449e-06
2.1511775e-06
2.0428467e-06
2.0310559e-06
2.1071254e-06
2.2361323e-06
2.4388199e-06
2.4911089e-06
2.1316862e-06
1.9992112e-06
1.9477682e-06
1.9459556e-06
1.9916886e-06
2.0708225e-06
2.1842617e-06
2.2651745e-06
2.2571356e-06
2.3054761e-06
2.3853942e-06
2.4875358e-06
2.6175476e-06
2.7627479e-06
2.9373686e-06
3.0278615e-06
2.893452e-06
2.8506944e-06
2.8367926e-06
2.8442521e-06
2.8809501e-06
2.9373133e-06
3.0133107e-06
3.1039054e-06
3.2049504e-06
3.3177351e-06
3.4280896e-06
3.4390132e-06
3.4361913e-06
3.4416566e-06
3.4480921e-06
3.4360284e-06
3.4099224e-06
3.373734e-06
3.3708759e-06
3.3406635e-06
3.1751744e-06
3.0278321e-06
2.9443311e-06
2.8852258e-06
2.846816e-06
2.8315697e-06
2.8506294e-06
2.9223432e-06
2.892146e-06
2.8532911e-06
2.8422115e-06
2.8476035e-06
2.857875e-06
2.8673118e-06
2.8761152e-06
2.8855539e-06
2.9087674e-06
2.9561224e-06
3.0735426e-06
3.2038697e-06
3.0352364e-06
2.8084971e-06
2.6224446e-06
2.4727477e-06
2.3591363e-06
2.2824521e-06
2.24632e-06
2.3044994e-06
2.2108302e-06
2.0677412e-06
1.9629161e-06
1.9068782e-06
1.9046964e-06
1.9634087e-06
2.1265874e-06
2.4567434e-06
2.3329981e-06
2.0965566e-06
1.9411131e-06
1.8584964e-06
1.8846877e-06
1.9397408e-06