/*--------------------------------*- C++ -*----------------------------------*\
| =========                 |                                                 |
| \\      /  F ield         | OpenFOAM: The Open Source CFD Toolbox           |
|  \\    /   O peration     | Version:  v2006                                 |
|   \\  /    A nd           | Website:  www.openfoam.com                      |
|    \\/     M anipulation  |                                                 |
\*---------------------------------------------------------------------------*/
FoamFile
{
    version     2.0;
    format      ascii;
    class       volScalarField;
    location    "4000";
    object      omega;
}
// * * * * * * * * * * * * * * * * * * * * * * * * * * * * * * * * * * * * * //

dimensions      [0 0 -1 0 0 0 0];


internalField   nonuniform List<scalar> 
103740
(
106488.22
106376.54
106231.03
109074.3
121606.83
120963.72
120221.36
119568.46
129369.3
129833.19
128657.44
127442.25
126270.3
142650.29
144010.42
141849.9
139694.24
137470.65
135989.79
185953.58
180813.9
175665.32
170610.78
165614.89
160721.86
155928.19
153928.34
165820.6
159895.56
154203.45
148768.21
143593.73
138696.1
134079.58
130467.63
166140.01
157931.58
150391.3
143499.15
137224.36
131544.92
126435.53
121874.62
117842.77
114320.34
111295.89
109286.52
111946.38
109186.73
106961.48
105241.09
104019.79
103290.14
103051.85
103309.22
103150.08
103410.51
103095.47
103305.15
103994.8
105180.69
106858.46
109053.09
111473.8
108843.03
111350.97
114377.78
117890.3
121916.45
126471.21
131576.22
137252.4
143528.28
150424.38
157986.05
154258.26
132051.35
136472.65
141341.97
146477.42
151919.88
157635.59
163655.29
169886.1
153028
154895.91
159588.97
164380.44
169279.52
174243.24
179344.88
175609.43
135857.95
137680.47
139922.72
142044.29
144181.98
138488.05
125702.93
126705.9
127878.71
128978.46
124901.22
117219.36
117698.25
118325.96
118843.44
115829.69
116147.8
116590.13
116976.07
17942.495
17917.469
17950.497
18479.163
20502.439
20375.024
20261.133
20187.059
21803.005
21871.082
21674.241
21472.162
21321.263
24033.702
24251.771
23892.459
23526.334
23155.315
22958.899
31300.271
30436.297
29575.239
28724.211
27883.557
27059.119
26253.069
25916.951
27908.737
26914.387
25956.6
25041.442
24169.988
23344.987
22566.703
21939.091
27951.26
26577.86
25308.418
24149.561
23093.821
22138.647
21279.101
20511.943
19833.294
19240.386
18728.267
18394.704
18869.637
18385.899
18007.102
17717.72
17510.927
17387.016
17340.205
17375.615
17402.364
17567.231
17389.236
17401.662
17517.867
17713.914
17995.909
18356.936
18770.665
18464.653
18787.622
19268.367
19859.813
20535.14
21301.093
22159.439
23113.677
24167.935
25322.542
26575.627
26025.707
22553.077
23044.539
23808.974
24678.057
25589.518
26552.648
27558.583
28614.399
25936.053
26150.633
26891.47
27699.671
28522.641
29361.563
30202.033
29648.595
23284.932
23246.812
23568.41
23937.874
24291.837
23396.03
21355.571
21366.333
21542.818
21732.958
21093.971
19860.91
19842.148
19929.582
20024.734
19544.488
19571.576
19642.521
19711.218
5792.4796
5777.7022
5831.4029
6051.0225
6638.8836
6571.5
6554.1115
6552.8344
7046.321
7053.4153
6991.3963
6933.4581
6916.2482
7753.6797
7808.0112
7699.1358
7576.2373
7464.5155
7457.9415
10055.392
9781.2394
9513.7531
9239.6644
8970.4163
8704.1342
8446.454
8341.5796
8967.997
8651.9276
8344.7994
8049.9504
7769.1061
7502.5877
7250.4042
7047.0643
8973.16
8543.1532
8133.7472
7761.866
7422.2888
7115.4105
6838.9434
6592.3164
6373.3853
6182.2289
6012.5156
5910.3371
6081.1856
5925.0055
5795.0433
5701.3572
5633.0708
5591.6674
5568.1196
5566.7295
5625.5035
5727.9498
5648.4838
5624.8709
5659.1507
5717.4684
5807.5412
5913.5857
6053.1275
6022.6264
6103.5865
6236.5854
6424.7977
6639.4026
6885.3889
7161.3099
7467.8878
7805.4283
8169.6985
8549.7907
8463.2308
7489.0435
7525.5896
7715.7153
7993.3753
8278.5828
8588.1122
8901.485
9250.1863
8500.9973
8517.4767
8717.5968
8974.1962
9235.8111
9509.5674
9756.4793
9667.5301
7831.1033
7614.2241
7632.2169
7760.7188
7865.6874
7657.9074
7042.0493
6952.8775
6969.6286
7036.2886
6883.7418
6498.12
6428.6903
6430.3359
6472.8185
6334.2027
6326.6384
6342.2666
6370.5393
2612.1743
2607.218
2687.4716
2819.3395
3005.4501
2958.2826
2974.8446
2991.1858
3177.156
3167.0086
3141.3715
3128.0294
3146.3567
3476.8288
3485.8577
3444.5006
3384.964
3348.6705
3393.8102
4458.2356
4340.9849
4232.3458
4109.8895
3991.3022
3871.4908
3758.7621
3714.8227
3977.9582
3840.8944
3705.4385
3573.5829
3448.0684
3328.0185
3213.7429
3120.6702
3971.78
3792.3067
3609.4092
3444.8204
3293.904
3157.7648
3034.8579
2925.318
2827.2901
2741.8147
2661.1011
2618.6342
2715.1542
2649.6867
2583.2591
2539.6369
2507.2721
2486.86
2468.4123
2451.173
2514.7184
2621.4748
2585.1139
2547.8909
2554.2253
2574.254
2611.839
2649.6177
2710.3415
2761.8178
2797.328
2836.5838
2913.5976
3005.4551
3113.6106
3235.8636
3371.5793
3519.8532
3674.1177
3816.413
3841.6057
3567.4212
3528.3267
3545.1883
3651.0284
3765.8461
3898.698
4027.1053
4181.7231
3959.996
3948.9849
3995.93
4097.0036
4207.2218
4328.5289
4413.9203
4425.85
3842.6058
3645.8697
3524.1292
3567.9228
3598.6897
3570.1073
3363.5698
3251.5784
3194.5928
3219.0396
3197.3357
3053.0237
2957.3817
2914.5759
2939.8104
2895.168
2875.7394
2869.7717
2887.4967
1446.5473
1460.1129
1556.3484
1625.3891
1653.9891
1630.7323
1662.4374
1675.6463
1740.4593
1728.5572
1718.7775
1726.7619
1748.3977
1882.0027
1877.8184
1862.1197
1828.5187
1826.5576
1878.4009
2361.8694
2307.8956
2258.9438
2193.3157
2130.8231
2065.6712
2007.4017
1985.4243
2110.7683
2040.7433
1969.5191
1898.3842
1830.7718
1765.1014
1702.0913
1650.5488
2099.2854
2013.7389
1916.1131
1829.0619
1748.7988
1676.5048
1611.0305
1552.6971
1499.8001
1453.6496
1406.0464
1383.0423
1451.9294
1425.3496
1384.2521
1357.8353
1338.1761
1324.7315
1308.5031
1282.7294
1330.9064
1443.7071
1445.3246
1412.6217
1404.8403
1408.6072
1424.2324
1436.7598
1459.8209
1533.7271
1571.7071
1584.9022
1618.1834
1662.7157
1718.0702
1781.9816
1852.9226
1929.4302
2004.1071
2053.8438
2089.5995
2081.7632
2081.6323
2046.513
2074.8796
2119.7013
2180.319
2237.6086
2305.9629
2272.5838
2286.4738
2285.3923
2320.0349
2368.2393
2425.6173
2447.6988
2452.3467
2341.8602
2270.5133
2093.8206
2073.8369
2062.0595
2070.8278
2036.1088
1959.254
1860.5885
1849.1302
1857.7963
1820.749
1733.0171
1656.4223
1660.3333
1648.8739
1628.9603
1607.6818
1616.6479
933.17662
970.05795
1064.7273
1069.4271
1029.7888
1034.3828
1070.2969
1071.6242
1080.1828
1074.4658
1075.0093
1092.9549
1103.7511
1144.6797
1140.6055
1137.3128
1119.2156
1134.6404
1172.6556
1389.3393
1370.4525
1348.6822
1309.8012
1272.9621
1233.2385
1200.0313
1186.8217
1247.9984
1209.1624
1167.5146
1124.3033
1083.2493
1042.4252
1002.931
971.11099
1233.289
1190.8119
1133.1928
1081.9111
1034.2559
991.32122
952.22637
917.31128
885.03435
856.67462
824.40663
807.71583
861.21491
855.15921
828.78167
809.69072
795.06633
783.91927
769.04134
739.72658
766.82461
874.79699
904.83166
887.08451
875.15292
870.84156
874.82622
875.86353
876.88299
948.73515
995.53391
1007.427
1023.5626
1046.3125
1076.5048
1112.5248
1152.5005
1194.6065
1231.7152
1238.2926
1252.8216
1349.9382
1408.8862
1380.637
1375.6788
1385.2031
1407.7143
1429.5982
1447.1533
1480.4696
1526.5566
1521.7847
1526.2167
1541.3311
1562.3879
1551.4209
1517.8918
1598.1854
1659.844
1505.1068
1440.683
1393.4006
1386.9335
1432.6019
1414.3612
1306.7879
1260.9623
1259.0008
1281.1576
1226.611
1130.2887
1105.7355
1102.9868
1088.0754
1055.4101
1052.8189
682.1551
737.7724
809.58302
756.11891
694.64617
723.42017
755.78695
743.61519
727.64023
731.28156
739.16464
757.86246
752.81633
749.19042
751.03982
755.00147
747.73227
768.24672
784.33304
869.12154
873.70819
865.77451
841.69871
818.37907
792.47037
772.14095
762.04592
789.89758
767.98466
741.91625
713.51564
686.42706
658.68001
631.6719
610.60902
772.92337
752.94454
717.13903
684.77635
654.31643
626.76837
601.44851
578.67197
557.08684
537.8306
513.99859
499.27144
540.31313
545.09712
529.29799
514.65715
502.40318
492.05021
478.42328
450.12363
459.43737
548.68334
593.18835
592.78951
584.58554
577.89007
575.86645
571.4316
560.47459
618.10536
667.1855
685.61871
697.99824
711.32364
728.61619
749.54626
772.53313
795.61054
812.65739
798.87527
789.35441
909.04601
1007.7316
1012.417
1004.8
999.5429
1001.266
1002.9628
988.85543
1034.4334
1099.8533
1109.8812
1106.404
1103.8913
1102.3045
1071.4708
1003.6387
1137.471
1286.1961
1200.6994
1125.3885
1053.4328
1018.9453
1090.1736
1124.9398
1038.0676
970.32055
945.06374
993.09978
980.74536
885.32831
834.50249
826.6562
816.88129
778.71862
764.05702
548.01023
609.81262
645.04254
551.65783
492.52171
536.01872
560.87873
539.10579
515.86695
528.12981
539.93616
553.08376
534.5957
512.40077
521.36039
529.78415
529.12316
545.96592
541.78775
562.55991
582.79976
582.36352
567.46275
552.13266
534.60357
521.20914
511.79085
521.75906
509.993
492.95912
473.32624
454.3944
434.39546
414.90402
400.34515
503.37416
495.93193
473.34758
452.03181
431.54359
412.85746
395.44357
379.59593
364.18319
350.17549
331.95424
318.543
348.08818
357.22837
349.05081
338.23123
327.90693
318.39179
306.48926
282.76497
281.32133
345.61743
390.22422
401.56586
400.09366
395.11321
391.20772
384.94821
369.79898
410.52135
453.62184
476.38046
489.99664
500.52607
511.72082
524.39658
537.64326
549.65866
555.6012
534.15038
509.86439
613.43689
721.49504
756.34781
762.35889
757.39357
750.95558
742.07013
710.73479
747.76983
815.55943
840.37829
841.16455
832.4112
818.51557
776.96666
691.46703
815.35713
992.76553
978.62631
922.20406
843.57369
789.63762
857.61357
922.95778
870.03028
798.92936
755.81929
807.15925
828.76021
751.05504
685.61697
667.27365
659.15821
621.00313
597.25743
464.82587
518.7668
516.91087
405.28773
358.41083
406.21623
423.16348
397.7539
375.91826
393.4824
405.66143
411.03888
385.29065
358.92844
373.22231
383.74257
385.55868
394.43083
376.95828
370.72336
399.29328
402.98168
394.13104
383.97801
371.89737
362.30403
352.87304
353.69817
348.23556
336.85069
322.92328
309.25179
294.4353
280.07592
269.80796
335.0133
334.46579
320.41751
306.0806
291.87431
278.76035
266.3452
254.91045
243.57545
233.13297
219.41419
208.00127
227.64013
236.84565
233.49474
226.17104
218.09183
210.08562
200.55411
182.97692
177.81735
218.829
254.18323
269.24377
272.8529
271.06656
267.90122
262.20815
248.10313
274.4224
306.9952
328.84904
343.21641
353.32563
362.03692
370.49924
378.37094
384.22501
384.45608
362.63113
334.63513
409.41997
503.63825
552.78722
573.48928
576.56786
571.02176
559.14851
522.07004
546.96012
605.68283
637.36955
645.16086
637.46014
619.60171
575.11404
488.2605
581.29301
744.46233
776.74007
750.82243
682.3432
624.62255
680.84184
754.99885
733.74187
673.79844
625.52207
669.82284
710.76418
658.30881
592.28337
564.97684
555.33161
520.29689
491.72945
400.01821
436.97917
407.32881
296.03638
262.83395
307.16167
317.88644
293.98579
276.71038
295.50404
305.50243
304.37007
277.85849
254.52966
270.97267
281.3934
282.77458
283.7869
260.70016
247.40885
277.78765
283.29758
278.47766
271.86287
263.46181
256.07265
246.92818
243.8475
242.11389
234.47512
224.57431
214.64581
203.71703
193.25674
186.03281
226.24525
229.01379
220.53957
210.88547
200.96494
191.68371
182.77753
174.50878
166.25264
158.61165
148.75901
140.01043
152.09354
159.32457
158.46055
153.96036
148.22877
142.17961
135.23225
123.34553
118.62116
142.46223
166.29961
179.55131
185.00667
185.64516
184.04619
180.01071
169.31175
185.35417
207.28836
224.60661
237.4062
246.78593
254.23594
260.56727
265.6532
268.45586
266.38338
247.92971
223.55869
271.56455
341.4612
389.20694
417.01634
428.03922
427.51041
417.8501
383.19572
399.20301
444.77872
475.48808
487.62848
483.71838
467.31762
425.88292
348.52399
411.56668
540.10562
589.99197
589.33469
539.33522
490.11369
537.44073
607.68596
608.39162
565.34921
523.10884
560.08868
608.20775
580.13628
524.02592
493.21624
481.08546
450.11283
420.29058
338.70278
356.89514
312.51351
214.17741
192.22735
228.92299
235.5798
216.17208
203.64931
220.46037
227.31097
222.54958
199.84403
182.15504
197.68239
206.42117
206.29941
202.37486
180.46653
168.67497
195.39484
201.23025
198.96899
194.7793
188.91887
183.04328
174.87941
170.8583
171.04142
165.97107
159.05413
151.96963
144.12718
136.73823
131.73882
155.63666
159.40776
154.462
148.03886
141.19318
134.7013
128.41156
122.54935
116.70961
111.30905
104.55307
98.411361
105.4719
110.43245
110.54009
107.94963
104.18262
99.974403
95.240604
87.590109
84.182354
97.637952
112.41072
122.03329
127.04572
128.67094
128.28442
125.88782
118.72896
128.25716
141.98545
154.00316
163.76472
171.44977
177.59121
182.53229
186.12351
187.61073
185.18195
171.36106
153.20591
181.74861
227.8552
265.4175
291.94737
306.46043
310.45586
305.02573
277.32132
288.33373
321.44035
346.86982
359.65955
359.10007
346.44903
311.70992
249.06791
290.18917
381.00071
428.86968
441.4278
409.5258
373.3807
416.45675
478.48747
491.25148
463.84837
433.28145
467.33265
516.03694
507.05894
465.95284
437.8522
424.49772
397.6071
368.89947
276.64816
280.19704
232.99974
154.07925
140.31883
168.06166
172.27192
158.13388
149.59964
162.83633
166.90159
161.17967
144.05236
132.09074
144.82765
151.26464
149.95149
144.27556
126.84414
118.70903
139.5748
144.77184
143.97299
141.38302
137.30206
132.6882
126.03788
122.47142
123.39751
120.08297
115.36601
110.43638
104.97799
99.903299
96.486894
110.23746
113.78215
110.94321
106.72443
102.07167
97.593249
93.221248
89.135303
85.089856
81.357622
76.816917
72.676323
76.764399
79.954486
80.301481
78.829222
76.43392
73.621151
70.493251
65.604406
63.340244
71.137081
80.081785
86.469233
90.27039
91.948309
92.164528
90.907832
86.423566
92.153918
100.50308
108.25443
114.9653
120.58683
125.23752
128.97617
131.60139
132.55424
130.59114
121.08061
108.68132
125.15766
153.3981
179.14045
199.72702
213.23259
219.12065
217.29984
197.70948
205.64516
228.90615
248.07629
259.09936
260.32405
251.53087
224.79916
177.91669
204.25435
264.01096
301.46381
316.88826
298.17042
273.47649
313.48259
366.74463
384.57654
368.69866
349.85909
385.07029
432.33472
436.46564
410.82604
390.31941
378.31486
355.58073
329.45286
216.61603
211.48153
169.54899
111.23237
103.2112
122.6634
125.37762
115.53056
110.40325
119.94331
122.18021
117.14271
105.20827
97.791332
107.2749
111.6025
109.83382
104.45784
91.930299
86.911654
102.17783
106.31699
106.23414
104.6418
101.80676
98.300211
93.27037
90.56377
91.607597
89.458343
86.287701
82.906082
79.164312
75.709865
73.366042
81.133264
84.034702
82.388452
79.620734
76.467938
73.381454
70.343638
67.495078
64.691087
62.108055
59.038465
56.263376
58.682658
60.691295
61.007612
60.140605
58.610613
56.743704
54.683971
51.511669
50.037763
54.787195
60.286004
64.416457
67.082754
68.469997
68.880436
68.284131
65.538454
69.100477
74.260084
79.157742
83.547955
87.391127
90.685559
93.386211
95.291802
95.99351
94.645835
88.41988
80.357309
89.984092
106.80835
123.09164
137.12955
147.45157
152.97026
153.1247
140.45576
146.2718
162.10043
175.66183
184.05702
185.75695
179.98475
160.80985
127.94453
145.03383
182.43571
208.45397
221.26342
210.49264
193.67116
228.40515
272.53239
291.1187
282.79751
272.42638
309.96688
355.70453
368.16742
355.6701
345.38018
337.52166
319.43946
296.88607
163.10512
154.82542
121.95962
81.598065
77.1481
90.33531
92.222074
85.672413
82.714462
89.272077
90.544608
86.808093
78.935172
74.390504
81.081343
83.847247
82.159117
77.869869
69.311532
66.36045
77.240966
80.319984
80.51854
79.517663
77.540407
74.947551
71.311058
69.397709
70.31369
68.909012
66.770335
64.440849
61.862974
59.483941
57.844753
62.202089
64.458971
63.472389
61.629559
59.465761
57.308221
55.165224
53.147584
51.17051
49.350707
47.230053
45.345123
46.835975
48.095252
48.315051
47.769528
46.76782
45.515638
44.145615
42.038504
41.076533
44.117866
47.611259
50.297017
52.119325
53.171226
53.588556
53.33877
51.650717
53.996864
57.286511
60.420254
63.273893
65.843022
68.108494
70.010253
71.381101
71.929679
71.082647
67.09524
61.859536
67.75615
77.924555
87.95496
96.931821
104.00642
108.22456
109.04066
101.21339
105.35313
115.85217
125.05028
130.96217
132.46683
128.76484
115.70238
93.766319
104.92218
127.60488
144.47311
153.41275
147.00632
136.19211
162.63284
196.64457
213.26584
209.56004
203.74896
241.53073
285.30927
302.76403
300.08794
300.2454
298.61844
285.98687
267.81518
119.57612
111.83814
88.364332
61.718246
59.102615
68.042129
69.462908
65.380169
63.501262
67.984401
68.777484
66.249001
61.160164
58.312252
62.957418
64.699201
63.308433
60.136595
54.398745
52.707243
60.444256
62.655943
62.918934
62.260819
60.862977
58.968534
56.38731
55.069405
55.802373
54.862714
53.392569
51.756915
49.945803
48.266853
47.090309
49.527203
51.265387
50.646618
49.388765
47.869003
46.324634
44.776889
43.313184
41.884643
40.57024
39.064196
37.755865
38.71085
39.505269
39.633509
39.263239
38.585825
37.731536
36.807777
35.374446
34.739926
36.775001
39.073574
40.849194
42.089853
42.858898
43.217342
43.13826
42.084268
43.702475
45.888505
47.958681
49.850233
51.582017
53.141409
54.480709
55.474036
55.915226
55.415882
52.868281
49.420948
53.218206
59.595323
65.852939
71.515539
76.147737
79.072282
79.918595
75.073912
77.940008
84.828184
90.924389
94.903181
96.020606
93.640894
85.010789
70.560008
77.906751
91.926243
102.37515
108.02285
103.99115
97.325485
115.38485
139.4053
152.54619
151.30418
148.47528
181.89347
221.65273
241.42547
245.25737
254.15218
259.49957
253.01303
239.90311
87.174882
81.476084
65.568058
48.316517
46.64928
52.848897
53.989459
51.45909
50.20819
53.320142
53.868137
52.203619
48.931919
47.08353
50.332945
51.442166
50.373
48.088887
44.254972
43.308243
48.869145
50.435443
50.672015
50.213153
49.203733
47.817111
45.985444
45.078783
45.644113
44.99473
43.955375
42.775423
41.46868
40.248579
39.38055
40.736823
42.085132
41.677823
40.794288
39.697616
38.562503
37.415497
36.326076
35.266736
34.292653
33.192997
32.263027
32.895917
33.399973
33.457852
33.188157
32.714683
32.121392
31.490617
30.494154
30.070038
31.483099
33.042282
34.238553
35.086167
35.639126
35.925252
35.924163
35.252613
36.411412
37.922544
39.341465
40.63457
41.830973
42.925876
43.886671
44.622764
44.987189
44.716556
43.076596
40.77572
43.322999
47.489067
51.519648
55.150628
58.167544
60.122759
60.804327
57.746484
59.689082
64.218448
68.240654
70.870403
71.635615
70.076327
64.42478
54.830521
59.696433
68.654489
75.140334
78.560611
75.882562
71.685806
83.327708
99.117648
108.51319
108.33509
107.13435
133.36157
166.61063
186.09445
193.3887
208.03821
219.53158
219.28122
211.64562
64.623759
60.872437
50.322627
39.086843
37.959369
42.379099
43.299754
41.717745
40.870979
43.108635
43.519371
42.434436
40.304034
39.081275
41.377243
42.103944
41.312112
39.682213
37.103544
36.595025
40.65352
41.758562
41.939766
41.598896
40.851475
39.825628
38.512372
37.880898
38.311203
37.845945
37.087498
36.21076
35.240719
34.327837
33.67093
34.416688
35.477339
35.196896
34.558825
33.746134
32.8904
32.019275
31.188627
30.383605
29.644337
28.820644
28.143948
28.576615
28.895641
28.904636
28.696392
28.355073
27.936245
27.501161
26.794591
26.507024
27.519253
28.60494
29.423584
30.00461
30.398199
30.617889
30.646668
30.20874
31.063432
32.143455
33.150057
34.065207
34.918512
35.710247
36.419832
36.982875
37.293007
37.170367
36.105313
34.543728
36.31466
39.136935
41.828422
44.224574
46.220434
47.523051
48.027101
46.016676
47.338465
50.363066
53.042273
54.783454
55.291504
54.242806
50.510755
44.025845
47.278557
53.185453
57.32189
59.399149
57.550589
54.77876
62.158359
72.164923
78.449833
78.588708
77.941782
96.715757
122.09932
139.06159
147.22218
164.09551
179.54735
184.67031
182.39207
49.429139
47.044215
40.038913
32.547647
31.76214
34.999526
35.739871
34.738135
34.174838
35.834152
36.160844
35.452775
34.033619
33.220557
34.868126
35.362201
34.789474
33.629404
31.882425
31.630422
34.638433
35.418154
35.541175
35.272153
34.703865
33.932652
32.975421
32.526561
32.853193
32.507848
31.936511
31.265931
30.525715
29.824104
29.315597
29.714985
30.563654
30.36326
29.891272
29.274557
28.614838
27.938683
27.291676
26.666389
26.093417
25.462397
24.958804
25.263307
25.462471
25.440224
25.272124
25.019174
24.719226
24.416729
23.906311
23.708238
24.453014
25.226112
25.792913
26.191405
26.468599
26.632634
26.667569
26.374115
27.017392
27.810986
28.547747
29.217455
29.846873
30.438927
30.980824
31.427227
31.69932
31.672085
30.975436
29.898761
31.165885
33.136094
34.993314
36.623673
37.975746
38.853811
39.217223
37.826919
38.738048
40.802722
42.61963
43.788335
44.124895
43.402555
40.893919
36.40877
38.617525
42.618506
45.34312
46.635984
45.322546
43.401706
48.154057
54.474193
58.547252
58.682715
58.320485
70.842816
88.6638
101.89503
109.1326
125.03983
141.54285
150.24554
152.45264
39.180535
37.654292
32.926624
27.772732
27.219962
29.65644
30.241549
29.604896
29.246823
30.504737
30.776299
30.310935
29.341007
28.795225
30.010955
30.360522
29.953189
29.129106
27.940412
27.840689
30.10147
30.651819
30.723249
30.499458
30.055345
29.464137
28.751925
28.424433
28.67278
28.408134
27.964688
27.437802
26.858287
26.305818
25.903885
26.106476
26.798222
26.651416
26.295663
25.818367
25.300203
24.7656
24.252392
23.757409
23.30523
22.812235
22.429458
22.64989
22.771169
22.730267
22.590754
22.398878
22.181453
21.969416
21.593765
21.454916
22.015453
22.577191
22.973133
23.245589
23.437673
23.557001
23.587638
23.383892
23.874417
24.471205
25.025153
25.530428
26.010061
26.468063
26.89655
27.263334
27.50923
27.542264
27.084174
26.331243
27.25872
28.668662
29.985776
31.126242
32.065398
32.667731
32.928949
31.92131
32.557137
33.995984
35.253253
36.053259
36.279705
35.774938
34.05108
30.870982
32.404132
35.175803
37.020094
37.845806
36.886653
35.505393
38.650306
42.721709
45.350205
45.403535
45.143284
53.268301
65.098972
74.574794
80.114731
93.048488
107.96505
117.96588
123.09258
32.107176
31.110755
27.84431
24.181251
23.790995
25.674926
26.133879
25.727983
25.517009
26.48564
26.718573
26.410895
25.732433
25.365471
26.28939
26.546927
26.260859
25.674543
24.865636
24.863003
26.584168
26.971942
27.00118
26.806642
26.449631
25.986263
25.443667
25.197231
25.386641
25.178304
24.824753
24.400568
23.936003
23.491156
23.166764
23.257912
23.832691
23.724213
23.452659
23.077679
22.664717
22.235637
21.822436
21.424275
21.061954
20.669971
20.373503
20.537681
20.608748
20.558246
20.440686
20.292472
20.132944
19.982935
19.701065
19.601862
20.031641
20.44824
20.727022
20.912019
21.04212
21.126118
21.148594
21.000351
21.378097
21.835256
22.261217
22.652818
23.02947
23.395293
23.745658
24.057095
24.284405
24.354657
24.053761
23.519208
24.208742
25.23988
26.195193
27.011998
27.679681
28.100818
28.289036
27.532498
27.978652
28.995965
29.8828
30.443399
30.600221
30.246273
29.03017
26.723411
27.811441
29.76829
31.042579
31.578463
30.858759
29.837993
31.978406
34.676908
36.392459
36.370154
36.153207
41.43766
49.113426
55.552557
59.425383
68.852853
80.668432
89.958234
96.165368
27.063732
26.401358
24.085623
21.39931
21.122559
22.615608
22.973767
22.721163
22.612494
23.368751
23.573738
23.370397
22.886921
22.640202
23.364055
23.561523
23.362294
22.942528
22.395006
22.460129
23.788146
24.059955
24.056759
23.881409
23.586039
23.213957
22.789652
22.597625
22.742548
22.574953
22.286421
21.937407
21.556709
21.190769
20.922772
20.951717
21.43841
21.359334
21.150839
20.85323
20.520642
20.172256
19.835674
19.51122
19.217265
18.900796
18.667237
18.793185
18.832869
18.77911
18.679231
18.563089
18.444325
18.337343
18.1216
18.048639
18.384755
18.70031
18.898181
19.02254
19.108004
19.164177
19.177552
19.063409
19.357101
19.712531
20.046312
20.35697
20.660847
20.961708
21.257001
21.528994
21.74212
21.834756
21.639823
21.251047
21.770002
22.539191
23.244817
23.841744
24.326394
24.626525
24.762767
24.178559
24.49097
25.218958
25.856454
26.257539
26.370061
26.123146
25.242178
23.535837
24.321297
25.723045
26.616545
26.965308
26.410066
25.640351
27.13355
28.972209
30.110697
30.03622
29.845217
33.35567
38.351972
42.636046
45.227501
51.647965
60.143979
67.594518
73.384691
23.34177
22.894261
21.209177
19.182755
18.9843
20.189501
20.476922
20.326567
20.285686
20.886568
21.070969
20.938412
20.589694
20.422638
21.007662
21.16508
21.026383
20.722254
20.356462
20.47074
21.513745
21.702586
21.676104
21.513435
21.261962
20.95542
20.614338
20.459023
20.570178
20.433067
20.192887
19.900123
19.581637
19.274124
19.046897
19.04149
19.461105
19.406274
19.246451
19.008952
18.739355
18.454186
18.17773
17.910887
17.670275
17.411233
17.223995
17.32371
17.345152
17.29259
17.207569
17.115235
17.025672
16.948765
16.780225
16.724239
16.993421
17.237852
17.379848
17.46248
17.516261
17.550866
17.555902
17.463356
17.693202
17.97309
18.238921
18.490457
18.741524
18.995482
19.250951
19.493914
19.695322
19.800382
19.67723
19.383211
19.78201
20.365113
20.894314
21.338061
21.696506
21.914487
22.0135
21.550665
21.768583
22.29739
22.762409
23.053983
23.138511
22.967351
22.314808
21.033531
21.605745
22.617812
23.250371
23.474334
23.034318
22.444245
23.50669
24.787912
25.55497
25.449525
25.277754
27.674971
30.991146
33.844041
35.555434
39.810009
45.569008
50.980914
55.589682
20.503468
20.194038
18.933966
17.369036
17.225056
18.217167
18.452935
18.369619
18.371351
18.859716
19.028286
18.945709
18.691039
18.577763
19.064883
19.1955
19.098086
18.873646
18.633748
18.783262
19.62353
19.753993
19.711459
19.557849
19.337793
19.078601
18.796671
18.666357
18.751701
18.638032
18.434761
18.184934
17.913404
17.649425
17.451625
17.426936
17.793964
17.760614
17.63948
17.449752
17.230657
16.996107
16.767961
16.547046
16.348949
16.134306
15.981377
16.063136
16.075582
16.0273
15.95526
15.881053
15.812902
15.756985
15.622466
15.577677
15.79838
15.992807
16.096812
16.151244
16.183164
16.202035
16.199903
16.121709
16.302601
16.525726
16.740642
16.948125
17.160016
17.379266
17.605073
17.82579
18.016792
18.127507
18.052104
17.819798
18.130051
18.581804
18.985071
19.319897
19.589608
19.75089
19.822248
19.447787
19.598287
19.988061
20.332151
20.548135
20.615404
20.495618
20.041361
19.038367
19.450246
20.181869
20.631559
20.77016
20.413091
19.951851
20.719013
21.626935
22.149217
22.027346
21.87051
23.551297
25.809338
27.735102
28.868365
31.690361
35.504555
39.21853
42.541252
18.273047
18.052747
17.08428
15.84744
15.742651
16.575281
16.771838
16.731173
16.759206
17.165155
17.320869
17.272636
17.084678
17.010666
17.427611
17.540822
17.471748
17.302031
17.146948
17.319434
18.020359
18.111742
18.059032
17.912768
17.71545
17.490703
17.251311
17.138274
17.203967
17.108688
16.934268
16.717757
16.481965
16.250654
16.073995
16.038273
16.361722
16.348563
16.258597
16.107597
15.929857
15.736721
15.548251
15.364262
15.200463
15.021038
14.893722
14.963306
14.973107
14.931085
14.870734
14.811161
14.758836
14.717579
14.60783
14.570741
14.755949
14.915496
14.994502
15.030673
15.04826
15.056662
15.048653
14.980389
15.124179
15.30457
15.481084
15.655352
15.837616
16.030576
16.233613
16.436502
16.617487
16.728826
16.684286
16.493178
16.738031
17.093687
17.407606
17.665081
17.87155
17.993013
18.043188
17.735496
17.83651
18.128414
18.388033
18.551477
18.608228
18.525829
18.203325
17.414972
17.708706
18.23496
18.555151
18.634874
18.339296
17.970545
18.529086
19.179935
19.536636
19.407021
19.261837
20.465953
22.041899
23.366052
24.123471
26.022872
28.556579
31.046741
33.315964
16.470322
16.307603
15.542605
14.54158
14.466023
15.177815
15.343461
15.32913
15.371421
15.716698
15.86095
15.835355
15.697369
15.653298
16.019473
16.122444
16.074215
15.943211
15.84057
16.023137
16.633858
16.701999
16.644378
16.50511
16.324834
16.125476
15.917018
15.815977
15.866751
15.786203
15.63489
15.444709
15.236238
15.029658
14.86834
14.825605
15.110533
15.117416
15.052229
14.933059
14.789748
14.631201
14.475679
14.321838
14.185966
14.03509
13.927137
13.988458
13.999723
13.965364
13.915921
13.868464
13.827931
13.79693
13.705425
13.673824
13.833036
13.968617
14.032147
14.057548
14.066591
14.068584
14.056751
13.996138
14.112278
14.260732
14.408356
14.557504
14.717103
14.88976
15.074773
15.262752
15.433719
15.541447
15.516366
15.353411
15.547169
15.83528
16.086023
16.28859
16.44955
16.54267
16.576971
16.321727
16.388871
16.610634
16.80938
16.935447
16.986124
16.930548
16.699908
16.075357
16.279457
16.655188
16.883627
16.922737
16.673908
16.372274
16.779271
17.247552
17.489207
17.35684
17.220958
18.097035
19.219248
20.146031
20.656524
21.960584
23.66918
25.3381
26.85328
14.974635
14.849231
14.229832
13.398815
13.345549
13.963692
14.104614
14.106206
14.153618
14.453356
14.587369
14.577146
14.475986
14.456743
14.785774
14.884182
14.853118
14.751077
14.676425
14.863815
15.41332
15.470746
15.413225
15.281438
15.114822
14.934771
14.749173
14.656457
14.695704
14.627235
14.494878
14.325989
14.138843
13.951167
13.801085
13.753282
14.002153
14.028414
13.982838
13.889978
13.775601
13.646199
13.518147
13.389493
13.276637
13.149167
13.056049
13.111559
13.126683
13.100897
13.061768
13.024416
12.992805
12.968978
12.891063
12.863469
13.00373
13.12327
13.17836
13.198669
13.20368
13.202485
13.189127
13.135486
13.231748
13.356851
13.483101
13.613423
13.755718
13.912486
14.082827
14.257925
14.418853
14.520732
14.506935
14.366482
14.524793
14.763167
14.966954
15.12953
15.257478
15.330377
15.352568
15.142128
15.189191
15.358319
15.511122
15.610191
15.657479
15.618701
15.454626
14.96358
15.09573
15.360345
15.523041
15.533638
15.320851
15.069054
15.363292
15.697562
15.856862
15.724757
15.596634
16.240214
17.050154
17.707354
18.052094
18.964401
20.137933
21.268429
22.276655
13.703167
13.601056
13.086607
12.383817
12.347171
12.888977
13.010575
13.021997
13.067456
13.332059
13.457345
13.458442
13.385305
13.385454
13.686901
13.784841
13.769269
13.690198
13.625388
13.816482
14.322192
14.378464
14.325268
14.202189
14.047516
13.882877
13.71477
13.627926
13.65807
13.599656
13.483178
13.331908
13.161946
12.988995
12.84736
12.795484
13.009691
13.052407
13.022715
12.951656
12.861668
12.756682
12.651864
12.544507
12.45078
12.342669
12.261104
12.312062
12.332098
12.31504
12.285495
12.256774
12.231984
12.213105
12.145396
12.120686
12.247125
12.356324
12.408155