/*--------------------------------*- C++ -*----------------------------------*\
| =========                 |                                                 |
| \\      /  F ield         | OpenFOAM: The Open Source CFD Toolbox           |
|  \\    /   O peration     | Version:  v2006                                 |
|   \\  /    A nd           | Website:  www.openfoam.com                      |
|    \\/     M anipulation  |                                                 |
\*---------------------------------------------------------------------------*/
FoamFile
{
    version     2.0;
    format      ascii;
    class       volScalarField;
    location    "4000";
    object      p;
}
// * * * * * * * * * * * * * * * * * * * * * * * * * * * * * * * * * * * * * //

dimensions      [1 -1 -2 0 0 0 0];


internalField   nonuniform List<scalar> 
103740
(
1.0005029
1.0002692
1.000208
0.99913273
1.0008677
1.0009252
1.001468
1.0010446
1.0017941
1.0019782
1.0021711
1.0024487
1.0021017
1.0027052
1.0028525
1.0031059
1.0031177
1.0034592
1.0029555
1.0037383
1.0037471
1.0039814
1.0040253
1.0041433
1.0041879
1.0042698
1.0042816
1.0043876
1.0044058
1.0044543
1.0044682
1.0044959
1.0045
1.0045151
1.0045043
1.0045027
1.0044721
1.0044607
1.0044262
1.0044012
1.0043636
1.0043253
1.0042819
1.0042281
1.0041766
1.0040958
1.0040334
1.0038631
1.0038702
1.0037698
1.003697
1.0036002
1.0034912
1.0033589
1.0031941
1.002914
1.0026105
1.0027886
1.0026449
1.0025898
1.002471
1.0023742
1.0021799
1.0020868
1.0015985
1.0017968
1.0016316
1.0015408
1.0014088
1.0012603
1.0010834
1.0008837
1.000629
1.0003408
0.99991013
0.99932561
0.99824524
0.99919157
0.99894342
0.99892127
0.99876902
0.99862472
0.99826887
0.99809915
0.99699446
0.99747646
0.99729277
0.99710842
0.99679424
0.99645564
0.99568506
0.99510021
0.99202048
0.99502794
0.99441939
0.994547
0.99432943
0.99376621
0.99274926
0.99425934
0.99400378
0.99408336
0.99375694
0.99314075
0.99452817
0.99434706
0.99487421
0.99442045
0.99519495
0.99515523
0.99543158
1.0005024
1.0002695
1.0002096
0.99913257
1.0008601
1.0009221
1.0014675
1.001043
1.0017884
1.0019756
1.0021678
1.0024493
1.0020999
1.0026986
1.0028484
1.0031032
1.003114
1.0034609
1.0029522
1.0037277
1.0037432
1.0039772
1.0040227
1.0041408
1.0041859
1.0042683
1.0042798
1.0043855
1.0044046
1.0044532
1.0044674
1.0044952
1.0044996
1.0045149
1.0045043
1.0045033
1.0044728
1.0044614
1.0044272
1.0044022
1.0043647
1.0043264
1.0042831
1.0042293
1.0041779
1.004097
1.0040352
1.0038651
1.0038709
1.0037709
1.0036978
1.0036008
1.0034912
1.0033583
1.0031926
1.0029141
1.0026128
1.0027885
1.0026446
1.002589
1.0024697
1.0023718
1.0021771
1.0020806
1.0015984
1.001797
1.0016288
1.0015379
1.0014048
1.0012554
1.0010773
1.0008759
1.0006192
1.0003271
0.99989033
0.99929628
0.9982471
0.99920212
0.99893929
0.99891835
0.99876401
0.99861623
0.99825969
0.99807827
0.9969854
0.99748107
0.99728728
0.99710093
0.9967844
0.99643917
0.99566479
0.99505318
0.99202276
0.99505229
0.99441443
0.99454579
0.99432164
0.9937531
0.99275382
0.99426788
0.99400234
0.99408151
0.99375186
0.99314483
0.99453339
0.99434834
0.99487452
0.99442162
0.99519736
0.99515591
0.995432
1.000502
1.0002696
1.0002109
0.99913346
1.0008537
1.0009194
1.0014669
1.0010424
1.0017836
1.0019733
1.002165
1.0024496
1.0020994
1.002693
1.0028449
1.0031009
1.0031109
1.0034622
1.0029509
1.0037187
1.0037398
1.0039735
1.0040205
1.0041386
1.0041842
1.0042671
1.0042782
1.0043836
1.0044036
1.0044522
1.0044667
1.0044947
1.0044992
1.0045147
1.0045043
1.0045035
1.0044733
1.0044619
1.0044279
1.0044029
1.0043655
1.0043272
1.0042839
1.0042301
1.0041787
1.0040976
1.0040365
1.0038671
1.0038714
1.0037717
1.0036981
1.0036009
1.0034912
1.003358
1.0031916
1.0029152
1.0026168
1.0027883
1.0026444
1.0025883
1.0024686
1.0023698
1.0021747
1.0020757
1.0015994
1.0017969
1.0016264
1.0015354
1.0014015
1.0012511
1.001072
1.0008691
1.0006107
1.0003153
0.99987346
0.99927407
0.99825357
0.99921037
0.99893538
0.9989158
0.99875964
0.99860889
0.9982516
0.9980607
0.99698064
0.99748507
0.99728237
0.99709441
0.99677581
0.99642489
0.99564718
0.9950147
0.99203167
0.99507185
0.99440978
0.99454468
0.99431503
0.99374293
0.99275924
0.9942749
0.99400103
0.99407996
0.99374812
0.99314891
0.99453785
0.9943491
0.99487462
0.99442271
0.99519938
0.9951563
0.99543224
1.0005016
1.00027
1.0002125
0.99913626
1.0008476
1.0009167
1.0014663
1.0010426
1.0017788
1.0019709
1.002162
1.0024499
1.0020996
1.0026875
1.0028413
1.0030985
1.0031075
1.0034633
1.0029511
1.0037094
1.0037362
1.0039696
1.0040182
1.0041363
1.0041824
1.0042658
1.0042767
1.0043817
1.0044024
1.0044512
1.004466
1.0044941
1.0044988
1.0045145
1.0045043
1.004504
1.004474
1.0044626
1.0044288
1.0044038
1.0043665
1.0043283
1.0042851
1.0042313
1.0041801
1.0040989
1.0040384
1.0038697
1.0038719
1.0037728
1.003699
1.0036016
1.0034914
1.0033578
1.003191
1.0029183
1.002623
1.0027881
1.0026445
1.0025876
1.0024675
1.0023678
1.0021724
1.0020712
1.0016018
1.0017966
1.0016242
1.0015328
1.0013979
1.0012466
1.0010664
1.000862
1.0006017
1.0003029
0.99985638
0.99925476
0.99826674
0.99921805
0.99893222
0.99891303
0.99875507
0.99860112
0.9982431
0.99804279
0.99697883
0.99748883
0.99727737
0.99708748
0.99676671
0.99640974
0.99562868
0.99497819
0.99205067
0.99509205
0.99440545
0.99454346
0.99430838
0.99373344
0.99276694
0.99428257
0.99399988
0.9940785
0.99374452
0.99315398
0.9945426
0.99435036
0.99487499
0.994424
0.99520162
0.99515696
0.99543268
1.0005013
1.0002706
1.0002147
0.99914209
1.0008415
1.0009139
1.0014653
1.0010436
1.0017739
1.0019684
1.0021589
1.0024498
1.0021007
1.0026817
1.0028374
1.0030958
1.0031041
1.0034642
1.0029526
1.0037001
1.0037323
1.0039654
1.0040157
1.0041338
1.0041804
1.0042643
1.0042751
1.0043796
1.0044012
1.0044501
1.0044652
1.0044935
1.0044984
1.0045142
1.0045043
1.0045043
1.0044746
1.0044632
1.0044296
1.0044046
1.0043675
1.0043292
1.0042861
1.0042323
1.0041812
1.0041001
1.0040404
1.003873
1.0038725
1.003774
1.0036996
1.0036022
1.0034918
1.003358
1.0031908
1.0029241
1.0026313
1.0027885
1.0026448
1.0025869
1.0024665
1.0023658
1.0021704
1.0020671
1.001607
1.0017959
1.0016219
1.0015299
1.0013942
1.0012418
1.0010605
1.0008544
1.0005922
1.0002897
0.99983961
0.9992374
0.99828815
0.99922442
0.99892855
0.99891001
0.99875022
0.99859284
0.99823399
0.99802463
0.99698043
0.99749244
0.99727206
0.99708006
0.99675696
0.99639357
0.99561015
0.99494177
0.99208245
0.99511066
0.99440151
0.99454209
0.99430189
0.99372476
0.99277807
0.99429011
0.99399872
0.994077
0.99374156
0.99316065
0.99454761
0.99435177
0.99487526
0.99442565
0.995204
0.99515765
0.99543303
1.000501
1.0002713
1.0002181
0.99915148
1.0008358
1.0009113
1.0014642
1.0010455
1.0017692
1.0019658
1.0021557
1.0024496
1.0021028
1.0026765
1.0028335
1.003093
1.0031004
1.0034647
1.0029557
1.0036904
1.0037281
1.003961
1.004013
1.0041312
1.0041783
1.0042628
1.0042735
1.0043774
1.0043999
1.0044489
1.0044644
1.0044929
1.0044979
1.004514
1.0045042
1.0045049
1.0044753
1.0044641
1.0044306
1.0044056
1.0043687
1.0043304
1.0042875
1.0042336
1.0041827
1.0041015
1.0040427
1.0038771
1.003873
1.0037755
1.0037005
1.003603
1.0034923
1.0033584
1.0031908
1.0029326
1.0026418
1.0027897
1.0026457
1.0025863
1.0024657
1.0023638
1.0021687
1.0020636
1.0016148
1.0017949
1.0016201
1.001527
1.0013903
1.0012368
1.0010542
1.0008464
1.0005821
1.0002763
0.99982281
0.99922567
0.99831844
0.99923028
0.99892633
0.99890677
0.99874536
0.99858406
0.99822479
0.99800643
0.99698532
0.99749633
0.99726682
0.99707215
0.99674665
0.99637642
0.99559064
0.99490887
0.99212878
0.99512922
0.99439803
0.99454064
0.99429594
0.99371856
0.99279359
0.99429824
0.99399844
0.99407592
0.99373978
0.99316951
0.99455291
0.99435348
0.99487562
0.99442784
0.99520656
0.99515843
0.99543347
1.0005008
1.000272
1.0002228
0.99916502
1.0008307
1.0009086
1.0014628
1.0010492
1.0017647
1.0019632
1.0021523
1.0024492
1.0021068
1.002671
1.0028294
1.0030899
1.0030967
1.0034645
1.0029613
1.0036809
1.0037238
1.0039562
1.0040101
1.0041283
1.0041761
1.0042611
1.0042719
1.0043752
1.0043985
1.0044476
1.0044635
1.0044921
1.0044974
1.0045137
1.0045042
1.0045053
1.004476
1.0044647
1.0044316
1.0044066
1.0043698
1.0043315
1.0042887
1.0042349
1.0041841
1.004103
1.0040451
1.0038818
1.0038739
1.0037771
1.0037015
1.0036039
1.003493
1.0033591
1.003191
1.0029432
1.002655
1.0027914
1.002647
1.002586
1.002465
1.0023619
1.0021672
1.002061
1.0016256
1.0017935
1.0016182
1.0015238
1.0013863
1.0012314
1.0010476
1.0008379
1.0005717
1.0002625
0.999807
0.99921661
0.99835744
0.99923424
0.99892404
0.99890339
0.99874028
0.99857497
0.99821507
0.99798841
0.99699402
0.99750044
0.9972613
0.99706383
0.99673589
0.99635867
0.99557168
0.99487904
0.99219046
0.99514546
0.99439631
0.99453919
0.99429004
0.99371414
0.99281432
0.99430645
0.9939988
0.99407463
0.99374017
0.9931812
0.99455868
0.99435573
0.99487608
0.99443078
0.99520936
0.99515936
0.99543388
1.0005008
1.0002725
1.0002287
0.99918312
1.0008258
1.0009063
1.0014611
1.0010545
1.0017604
1.0019604
1.0021491
1.0024484
1.0021125
1.0026663
1.0028253
1.0030867
1.0030928
1.003464
1.0029693
1.0036712
1.0037192
1.0039511
1.004007
1.0041253
1.0041737
1.0042592
1.0042704
1.0043727
1.004397
1.0044462
1.0044625
1.0044913
1.0044968
1.0045134
1.004504
1.0045059
1.0044768
1.0044657
1.0044326
1.0044076
1.0043711
1.0043328
1.0042901
1.0042362
1.0041857
1.0041046
1.0040474
1.0038875
1.003875
1.0037788
1.0037025
1.0036048
1.0034937
1.0033601
1.0031916
1.0029552
1.0026708
1.0027932
1.0026489
1.0025861
1.0024645
1.0023602
1.0021662
1.002058
1.0016392
1.0017923
1.0016171
1.0015207
1.0013822
1.0012259
1.0010407
1.0008291
1.0005607
1.0002485
0.99979132
0.9992137
0.99840475
0.99923846
0.99892387
0.9988999
0.99873547
0.99856553
0.99820543
0.99797063
0.99700836
0.99750492
0.9972561
0.9970553
0.99672459
0.99634002
0.99555206
0.99485191
0.99226745
0.99516232
0.99439681
0.99453772
0.99428619
0.99371472
0.99284092
0.99431551
0.99400002
0.99407471
0.99374188
0.99319632
0.99456493
0.99435874
0.99487671
0.99443469
0.99521244
0.99516051
0.9954343
1.0005011
1.0002732
1.000236
0.99920598
1.000822
1.000904
1.0014592
1.0010615
1.0017565
1.0019577
1.0021456
1.0024474
1.0021199
1.0026613
1.002821
1.0030833
1.0030889
1.0034629
1.00298
1.0036617
1.0037144
1.0039457
1.0040036
1.004122
1.0041711
1.0042572
1.0042688
1.0043701
1.0043953
1.0044446
1.0044613
1.0044903
1.0044961
1.0045129
1.0045036
1.0045061
1.0044774
1.0044662
1.0044337
1.0044087
1.0043723
1.004334
1.0042914
1.0042376
1.0041872
1.0041062
1.0040496
1.0038937
1.0038762
1.0037806
1.0037037
1.0036057
1.0034943
1.0033611
1.0031924
1.0029674
1.0026884
1.0027952
1.0026513
1.0025863
1.0024642
1.0023586
1.0021653
1.0020547
1.0016539
1.0017922
1.0016156
1.0015176
1.0013779
1.0012199
1.0010334
1.0008198
1.0005495
1.0002344
0.99977728
0.99921464
0.99845825
0.99923988
0.9989241
0.99889649
0.99873063
0.99855592
0.99819559
0.9979538
0.99702777
0.99750881
0.99725079
0.9970464
0.99671294
0.99632096
0.99553374
0.9948306
0.99235895
0.99517645
0.9943987
0.99453778
0.9942823
0.99371756
0.99287415
0.99432468
0.99400236
0.99407529
0.99374573
0.9932154
0.99457166
0.99436273
0.99487766
0.99443976
0.99521579
0.99516199
0.99543488
1.0005016
1.0002742
1.000245
0.99923361
1.0008179
1.0009025
1.0014569
1.0010703
1.0017528
1.0019549
1.0021423
1.0024459
1.0021289
1.0026573
1.0028167
1.0030796
1.0030846
1.0034618
1.0029924
1.0036517
1.0037092
1.0039398
1.0039999
1.0041184
1.0041682
1.0042549
1.0042671
1.0043673
1.0043934
1.0044428
1.00446
1.0044891
1.004495
1.0045121
1.0045029
1.0045059
1.004478
1.0044671
1.0044345
1.0044095
1.0043733
1.004335
1.0042926
1.0042386
1.0041884
1.0041076
1.0040513
1.0038999
1.0038774
1.0037823
1.0037045
1.0036065
1.0034947
1.0033618
1.0031934
1.0029787
1.002707
1.0027972
1.0026539
1.0025868
1.002464
1.002357
1.0021648
1.0020526
1.001668
1.0017932
1.0016149
1.0015143
1.0013734
1.0012138
1.0010256
1.00081
1.0005376
1.00022
0.99976306
0.99921794
0.99851375
0.99924781
0.99892466
0.99889407
0.99872597
0.99854624
0.99818608
0.99793751
0.99705191
0.99751326
0.99724579
0.9970375
0.99670092
0.99630137
0.99551535
0.99481001
0.99246359
0.99519206
0.9944024
0.99453858
0.99428143
0.99372399
0.9929146
0.99433462
0.99400632
0.99407677
0.9937519
0.99323875
0.99457883
0.99436783
0.99487901
0.9944462
0.99521941
0.99516387
0.9954356
1.0005025
1.0002756
1.0002559
0.99926561
1.0008155
1.0009009
1.0014544
1.0010808
1.0017497
1.0019522
1.0021387
1.0024441
1.0021394
1.0026528
1.0028121
1.0030758
1.0030805
1.003461
1.0030044
1.0036427
1.0037034
1.0039335
1.0039958
1.0041143
1.0041649
1.0042522
1.0042651
1.004364
1.0043911
1.0044406
1.0044582
1.0044876
1.0044936
1.004511
1.0045017
1.0045055
1.0044779
1.0044672
1.0044354
1.0044104
1.0043742
1.0043359
1.0042934
1.0042395
1.0041894
1.0041085
1.0040527
1.0039056
1.0038781
1.0037839
1.0037051
1.0036066
1.0034946
1.0033621
1.0031945
1.0029891
1.0027266
1.0027992
1.0026566
1.0025872
1.0024636
1.0023552
1.002164
1.00205
1.0016818
1.0017943
1.0016136
1.0015109
1.0013685
1.001207
1.0010173
1.0007995
1.0005253
1.0002055
0.99975045
0.99922404
0.99856934
0.99925784
0.99892554
0.99889179
0.99872121
0.9985365
0.99817654
0.99792285
0.99708075
0.99751628
0.99724056
0.99702822
0.99668853
0.99628148
0.9954987
0.99479863
0.99258086
0.99520424
0.99440782
0.99454069
0.99428208
0.99373445
0.99296235
0.99434474
0.99401185
0.99407933
0.99376159
0.99326662
0.99458644
0.99437413
0.9948808
0.99445422
0.99522328
0.99516621
0.99543653
1.0005034
1.0002775
1.0002684
0.99930247
1.0008128
1.0009003
1.0014515
1.0010929
1.0017464
1.0019494
1.0021354
1.002442
1.0021514
1.0026491
1.0028075
1.0030717
1.0030756
1.0034604
1.0030157
1.0036334
1.0036972
1.0039264
1.0039912
1.0041098
1.0041612
1.0042491
1.0042627
1.0043603
1.0043883
1.0044379
1.004456
1.0044855
1.0044918
1.0045093
1.0044999
1.0045045
1.0044776
1.0044671
1.0044354
1.0044104
1.0043746
1.0043362
1.0042939
1.0042397
1.0041898
1.004109
1.0040537
1.0039108
1.0038787
1.0037848
1.003705
1.0036064
1.0034941
1.003362
1.0031954
1.002999
1.002746
1.0028009
1.0026593
1.0025875
1.0024629
1.0023532
1.0021633
1.0020491
1.0016961
1.0017946
1.0016122
1.0015073
1.001363
1.0011998
1.0010083
1.0007883
1.000512
1.0001904
0.99973727
0.99923315
0.99862465
0.99926972
0.99892681
0.99889044
0.99871643
0.99852669
0.99816734
0.99790874
0.99711262
0.99752059
0.99723527
0.99701911
0.99667577
0.99626134
0.99548275
0.99478437
0.99270634
0.9952186
0.99441449
0.9945446
0.99428423
0.99374892
0.99301698
0.99435579
0.99401909
0.99408346
0.99377477
0.99329924
0.99459451
0.99438175
0.99488308
0.99446403
0.99522739
0.99516906
0.9954377
1.000504
1.0002799
1.0002827
0.99934495
1.0008066
1.0008994
1.0014486
1.0011064
1.0017439
1.0019467
1.0021315
1.00244
1.0021641
1.0026446
1.0028024
1.0030673
1.0030708
1.0034597
1.0030267
1.0036243
1.0036903
1.0039186
1.0039858
1.0041047
1.0041569
1.0042455
1.0042598
1.0043559
1.004385
1.0044347
1.0044533
1.004483
1.0044893
1.0045071
1.0044974
1.0045028
1.0044768
1.0044666
1.0044352
1.0044102
1.0043745
1.0043361
1.0042938
1.0042396
1.0041897
1.0041089
1.004054
1.0039157
1.0038787
1.0037856
1.0037048
1.0036059
1.0034931
1.0033615
1.0031962
1.0030087
1.0027648
1.0028022
1.0026621
1.0025876
1.0024618
1.0023508
1.0021622
1.0020465
1.0017107
1.0017947
1.0016097
1.0015032
1.0013568
1.0011917
1.0009984
1.000776
1.000498
1.0001749
0.99972565
0.99924531
0.99867871
0.99928249
0.99892828
0.99888897
0.99871118
0.99851662
0.99815785
0.99789641
0.99714426
0.99752678
0.99722945
0.99700953
0.9966624
0.99624078
0.99546794
0.99478297
0.99283424
0.99524094
0.99442203
0.99455023
0.99428813
0.99376595
0.99307871
0.99436743
0.99402812
0.99408916
0.99379128
0.99333656
0.99460307
0.99439077
0.99488589
0.99447587
0.99523172
0.99517247
0.99543913
1.0005045
1.0002828
1.0002991
0.99939165
1.0008032
1.0008994
1.0014463
1.0011195
1.0017405
1.0019437
1.002128
1.0024385
1.0021762
1.0026405
1.002797
1.0030625
1.003065
1.0034588
1.0030375
1.0036145
1.0036827
1.0039099
1.0039798
1.0040988
1.004152
1.0042412
1.0042563
1.0043509
1.004381
1.0044309
1.0044499
1.0044799
1.0044863
1.0045044
1.0044943
1.0045005
1.0044754
1.0044656
1.0044346
1.0044097
1.0043741
1.0043357
1.0042935
1.0042392
1.0041894
1.0041088
1.0040539
1.0039202
1.0038786
1.0037859
1.0037043
1.003605
1.0034919
1.0033608
1.003197
1.0030179
1.0027834
1.0028037
1.0026649
1.0025876
1.0024604
1.0023481
1.0021612
1.0020452
1.0017249
1.001793
1.0016078
1.0014986
1.0013499
1.0011828
1.0009874
1.0007628
1.0004829
1.0001588
0.99971361
0.99925969
0.99873169
0.99929528
0.99892992
0.99888801
0.99870567
0.99850619
0.9981485
0.9978843
0.99717477
0.99753507
0.99722381
0.99699986
0.99664853
0.99622
0.9954551
0.99477447
0.99296665
0.99526216
0.99443182
0.99455793
0.99429371
0.99378373
0.99314884
0.99438011
0.99403902
0.99409659
0.99380922
0.99337996
0.99461228
0.9944013
0.99488932
0.99448993
0.99523627
0.99517649
0.99544083
1.0005053
1.0002858
1.0003178
0.99944105
1.0007957
1.0008999
1.0014454
1.0011315
1.0017379
1.0019409
1.0021237
1.0024373
1.0021874
1.0026365
1.0027912
1.0030572
1.0030591
1.0034572
1.0030486
1.0036035
1.0036744
1.0039002
1.0039729
1.0040922
1.0041464
1.0042362
1.0042524
1.0043453
1.0043764
1.0044265
1.004446
1.0044762
1.0044828
1.0045012
1.0044907
1.0044976
1.0044735
1.0044642
1.0044336
1.0044088
1.0043734
1.004335
1.0042929
1.0042385
1.0041888
1.0041085
1.0040535
1.0039247
1.0038783
1.0037862
1.0037035
1.0036039
1.0034904
1.0033601
1.0031979
1.0030267
1.0028018
1.0028055
1.0026678
1.0025873
1.0024591
1.0023452
1.00216
1.0020429
1.0017388
1.001791
1.001605
1.0014934
1.0013423
1.0011731
1.0009756
1.0007486
1.0004672
1.0001425
0.99970424
0.99927518
0.99878384
0.99930693
0.99893228
0.99888654
0.99869936
0.99849521
0.9981385
0.99787429
0.99720398
0.99754436
0.99721672
0.9969895
0.99663362
0.99619853
0.99544183
0.99477315
0.99310455
0.99528371
0.99444484
0.99456778
0.99430087
0.99380263
0.99322718
0.99439388
0.99405177
0.99410584
0.9938285
0.99343067
0.99462237
0.99441343
0.99489346
0.99450636
0.99524105
0.99518116
0.99544283
1.0005071
1.0002888
1.0003383
0.99949262
1.0007912
1.0009011
1.0014433
1.0011442
1.0017345
1.0019377
1.0021196
1.0024363
1.0021978
1.0026335
1.002785
1.0030514
1.003053
1.0034552
1.0030597
1.0035916
1.0036654
1.0038897
1.0039653
1.0040849
1.0041401
1.0042305
1.0042479
1.0043392
1.0043712
1.0044215
1.0044416
1.004472
1.0044788
1.0044975
1.0044867
1.0044943
1.0044711
1.0044623
1.0044322
1.0044076
1.0043725
1.0043341
1.0042921
1.0042377
1.004188
1.0041082
1.004053
1.003929
1.0038781
1.0037863
1.0037028
1.0036027
1.003489
1.0033595
1.0031993
1.0030353
1.0028198
1.0028077
1.002671
1.0025872
1.0024576
1.0023423
1.0021591
1.0020414
1.0017528
1.0017881
1.0016024
1.001488
1.0013341
1.0011627
1.0009629
1.0007335
1.0004503
1.0001256
0.99969531
0.99929137
0.99883538
0.99931648
0.99893595
0.99888565
0.9986927
0.99848379
0.99812873
0.99786693
0.99723264
0.99755265
0.99721023
0.99697881
0.99661811
0.99617686
0.99543182
0.99477507
0.9932447
0.99530798
0.99446013
0.9945793
0.99430961
0.9938259
0.99331092
0.99440839
0.99406633
0.99411698
0.99385218
0.99348627
0.99463326
0.99442724
0.99489845
0.99452526
0.99524608
0.99518653
0.99544514
1.0005098
1.0002927
1.0003601
0.99954611
1.0007844
1.000903
1.0014417
1.0011585
1.0017306
1.0019345
1.0021161
1.0024351
1.0022077
1.0026288
1.0027786
1.0030452
1.0030468
1.0034529
1.003071
1.0035794
1.0036558
1.0038783
1.0039568
1.0040768
1.0041332
1.0042242
1.004243
1.0043325
1.0043655
1.0044159
1.0044367
1.0044674
1.0044744
1.0044935
1.0044823
1.0044908
1.0044684
1.0044602
1.0044306
1.0044062
1.0043713
1.004333
1.0042911
1.0042368
1.004187
1.0041079
1.0040523
1.0039332
1.0038779
1.0037867
1.003702
1.0036017
1.0034878
1.0033592
1.0032011
1.0030438
1.0028373
1.0028104
1.0026745
1.0025873
1.0024566
1.0023395
1.0021585
1.0020394
1.0017667
1.0017843
1.0015994
1.0014819
1.0013253
1.0011516
1.0009494
1.0007176
1.0004335
1.0001095
0.99968964
0.99930875
0.9988867
0.99932353
0.99894092
0.99888394
0.99868529
0.99847194
0.99811929
0.99786102
0.99726227
0.99755863
0.99720178
0.99696719
0.99660144
0.99615474
0.99542048
0.994781
0.99338674
0.99532954
0.99447755
0.99459247
0.99432016
0.99385483
0.99339637
0.99442454
0.99408275
0.99413009
0.9938797
0.99354541
0.99464517
0.99444279
0.99490441
0.99454666
0.99525143
0.99519264
0.99544777
1.0005128
1.0002978
1.0003832
0.99960155
1.00078
1.0009056
1.0014389
1.0011739
1.0017282
1.001931
1.0021129
1.0024334
1.0022182
1.0026242
1.0027721
1.0030385
1.0030399
1.0034488
1.0030831
1.0035667
1.0036459
1.0038661
1.0039476
1.004068
1.0041257
1.0042171
1.0042376
1.0043254
1.0043593
1.0044099
1.0044314
1.0044623
1.0044696
1.0044892
1.0044777
1.004487
1.0044654
1.0044577
1.0044288
1.0044046
1.0043701
1.0043318
1.0042901
1.0042359
1.0041861
1.0041077
1.0040516
1.0039374
1.0038778
1.0037871
1.0037015
1.0036009
1.003487
1.0033593
1.0032036
1.0030522
1.0028545
1.0028136
1.0026785
1.0025876
1.0024555
1.0023369
1.0021586
1.002038
1.0017804
1.0017798
1.0015965
1.0014756
1.0013161
1.0011398
1.0009354
1.0007012
1.000416
1.0000935
0.99968435
0.9993276
0.99893803
0.99932797
0.99894682
0.99888262
0.9986779
0.99845996
0.99811007
0.99785743
0.99729236
0.99756198
0.99719427
0.99695535
0.99658453
0.99613293
0.9954142
0.99479176
0.99353392
0.99535405
0.99449692
0.99460735
0.99433286
0.99388825
0.99348203
0.99444346
0.99410123
0.99414541
0.9939102
0.99360744
0.99465838
0.99446014
0.99491144
0.9945705
0.99525717
0.99519954
0.99545078
1.0005163
1.0003041
1.000407
0.99965893
1.0007748
1.0009083
1.0014363
1.0011903
1.0017246
1.001928
1.0021083
1.0024303
1.0022299
1.0026196
1.0027655
1.0030314
1.0030343
1.0034421
1.0030959
1.0035538
1.0036357
1.0038532
1.0039377
1.0040584
1.0041176
1.0042095
1.0042318
1.0043178
1.0043527
1.0044034
1.0044256
1.0044569
1.0044645
1.0044846
1.0044728
1.0044831
1.0044622
1.0044551
1.0044269
1.0044029
1.0043687
1.0043306
1.004289
1.0042351
1.0041852
1.0041077
1.004051
1.0039415
1.0038781
1.003788
1.0037012
1.0036005
1.0034865
1.00336
1.0032068
1.0030606
1.0028713
1.0028175
1.0026831
1.0025884
1.0024555
1.0023346
1.0021591
1.0020368
1.0017934
1.0017753
1.0015935
1.0014689
1.0013066
1.0011278
1.0009209
1.0006845
1.0003991
1.0000789
0.99968345
0.99934788
0.99898894
0.9993304
0.99895319
0.99888037
0.99866981
0.99844808
0.9981022
0.99785537
0.99732279
0.99756329
0.99718478
0.99694241
0.99656676
0.99611129
0.99540666
0.99480787
0.99368453
0.99537668
0.99451821
0.99462406
0.99434795
0.99392648
0.99356825
0.99446459
0.99412183
0.99416306
0.99394512
0.9936714
0.99467289
0.99447933
0.99491967
0.99459668
0.9952634
0.99520725
0.99545419
1.0005205
1.0003117
1.0004314
0.99971843
1.0007724
1.0009112
1.0014328
1.0012074
1.0017223
1.0019248
1.002105
1.0024257
1.0022422
1.0026159
1.0027591
1.0030239
1.0030291
1.0034336
1.003109
1.0035407
1.0036253
1.0038395
1.0039271
1.0040482
1.0041089
1.0042012
1.0042256
1.0043098
1.0043457
1.0043965
1.0044195
1.0044511
1.0044592
1.0044798
1.0044679
1.0044791
1.0044589
1.0044523
1.0044249
1.0044012
1.0043674
1.0043295
1.0042881
1.0042344
1.0041845
1.0041082
1.0040505
1.0039458
1.0038788
1.0037891
1.0037012
1.0036004
1.0034864
1.0033613
1.0032108
1.0030691
1.0028878
1.002822
1.0026882
1.0025896
1.0024559
1.002333
1.0021601
1.0020361
1.0018057
1.0017707
1.0015909
1.0014621
1.0012969
1.0011154
1.0009062
1.0006678
1.0003823
1.0000652
0.9996844
0.99936963
0.99903908
0.99933144
0.99895967
0.9988784
0.99866218
0.99843641
0.9980953
0.99785339
0.99735332
0.99756337
0.99717682
0.99693
0.99654914
0.9960906
0.99540676
0.99482958
0.99383573
0.99539936
0.99454148
0.99464267
0.99436557
0.99396976
0.99365509
0.9944875
0.99414481
0.99418322
0.99398384
0.99373755
0.99468885
0.99450045
0.99492918
0.99462504
0.99527024
0.99521583
0.99545805
1.0005253
1.000321
1.000456
0.99978007
1.0007709
1.0009148
1.0014288
1.001225
1.0017196
1.001922
1.0021012
1.0024199
1.002255
1.0026117
1.0027527
1.003016
1.0030242
1.0034238
1.0031222
1.0035277
1.0036147
1.0038252
1.0039159
1.0040373
1.0040998
1.0041923
1.004219
1.0043015
1.0043383
1.0043892
1.0044131
1.004445
1.0044536
1.0044747
1.0044628
1.0044751
1.0044555
1.0044495
1.0044229
1.0043995
1.0043662
1.0043285
1.0042873
1.004234
1.004184
1.0041089
1.0040503
1.0039501
1.0038799
1.0037908
1.0037019
1.0036009
1.0034874
1.0033633
1.0032156
1.0030779
1.002904
1.0028272
1.002694
1.0025913
1.0024569
1.0023319
1.0021619
1.0020361
1.0018173
1.0017664
1.0015882
1.001455
1.001287
1.001103
1.0008914
1.0006512
1.0003666
1.0000538
0.99968753
0.99939297
0.99908847
0.99933215
0.99896562
0.99887551
0.99865419
0.99842522
0.99809053
0.99785292
0.99738512
0.99756149
0.99716695
0.99691598
0.99653098
0.99607187
0.99540929
0.99485733
0.99398853
0.99542134
0.99456714
0.99466332
0.99438692
0.99401826
0.99374198
0.99451203
0.99417045
0.99420607
0.9940257
0.99380587
0.99470627
0.99452355
0.99494005
0.99465548
0.99527778
0.9952253
0.99546242
1.0005308
1.0003319
1.0004806
0.9998438
1.0007713
1.0009195
1.001425
1.0012434
1.0017179
1.0019193
1.0020983
1.0024132
1.0022683
1.0026084
1.0027467
1.0030078
1.00302
1.0034126
1.0031355
1.0035147
1.0036042
1.0038104
1.0039042
1.0040257
1.0040901
1.0041828
1.004212
1.0042929
1.0043306
1.0043815
1.0044064
1.0044386
1.0044479
1.0044695
1.0044577
1.004471
1.004452
1.0044466
1.0044209
1.0043978
1.004365
1.0043277
1.0042867
1.0042338
1.0041837
1.0041101
1.0040503
1.0039546
1.0038816
1.003793
1.0037032
1.0036022
1.003489
1.0033661
1.0032214
1.003087
1.00292
1.0028333
1.0027005
1.0025939
1.0024588
1.002332
1.0021643
1.0020366
1.0018283
1.0017622
1.0015858
1.0014481
1.0012773
1.0010905
1.0008768
1.0006351
1.0003517
1.0000436
0.99969323
0.9994178
0.99913777
0.99933232
0.99897125
0.99887291
0.99864723
0.99841491
0.99808655
0.99785364
0.99741879
0.99755603
0.99715724
0.99690373
0.99651443
0.99605456
0.99541666
0.99489103
0.99414157
0.99544037
0.99459708
0.99468641
0.99441208
0.99407178
0.9938285
0.9945383
0.99419901
0.99423182
0.99407027
0.99387672
0.99472517
0.99454872
0.99495233
0.99468787
0.99528608
0.99523574
0.99546736
1.0005369
1.0003445
1.0005057
0.99990947
1.0007726
1.0009255
1.0014208
1.0012624
1.0017161
1.0019172
1.0020948
1.0024055
1.0022819
1.0026049
1.0027411
1.0029991
1.0030162
1.0033999
1.0031486
1.0035021
1.0035938
1.0037952
1.003892
1.0040135
1.00408
1.0041727
1.0042046
1.0042839
1.0043225
1.0043735
1.0043994
1.0044319
1.0044419
1.0044642
1.0044527
1.004467
1.0044486
1.0044437
1.0044189
1.0043963
1.004364
1.004327
1.0042863
1.0042338
1.0041837
1.0041118
1.004051
1.0039594
1.0038838
1.0037957
1.0037051
1.0036044
1.0034915
1.0033698
1.0032281
1.0030965
1.0029358
1.0028402
1.0027078
1.0025972
1.0024615
1.0023328
1.0021676
1.0020377
1.0018387
1.0017586
1.0015836
1.0014412
1.0012676
1.0010782
1.0008625
1.0006196
1.0003385
1.0000369
0.99970159
0.99944387
0.99918598
0.99932575
0.99897803
0.99887015
0.99864014
0.99840532
0.99808557
0.99785573
0.99745285
0.9975436
0.99715041
0.99688982
0.99649738
0.99604104
0.99542734
0.99493116
0.99429428
0.99545549
0.99463297
0.99471215
0.99444152
0.99412931
0.99391539
0.99456633
0.99423117
0.99426072
0.9941177
0.99394988
0.99474558
0.99457606
0.99496608
0.99472213
0.99529519
0.99524718
0.99547292
1.0005438
1.0003589
1.0005314
0.9999769
1.0007754
1.000933
1.0014168
1.0012822
1.0017151
1.0019153
1.002092
1.0023972
1.002296
1.0026021
1.002736
1.0029899
1.0030134
1.0033855
1.0031616
1.0034895
1.0035835
1.0037796
1.0038792
1.0040007
1.0040694
1.0041621
1.0041968
1.0042747
1.0043142
1.0043652
1.0043922
1.0044251
1.0044359
1.0044587
1.0044476
1.0044629
1.0044453
1.0044409
1.0044171
1.0043949
1.0043632
1.0043267
1.0042862
1.0042345
1.0041841
1.0041139
1.0040521
1.0039643
1.0038867
1.0037993
1.003708
1.0036073
1.0034949
1.0033745
1.0032357
1.0031064
1.0029515
1.002848
1.0027159
1.0026015
1.002465
1.0023344
1.0021717
1.0020396
1.0018486
1.0017554
1.0015819
1.0014345
1.0012584
1.0010662
1.0008488
1.0006054
1.000327
1.0000311
0.99971253
0.99947082
0.9992328
0.99931818
0.99898636
0.99886776
0.99863454
0.99839756
0.99808626
0.99785948
0.99748632
0.99753436
0.99714323
0.99687777
0.9964839
0.99603071
0.995442
0.99497792
0.99444565
0.99546748
0.994675
0.9947407
0.99447558
0.99419052
0.99400316
0.99459571
0.99426762
0.99429298
0.9941681
0.99402515
0.99476753
0.99460566
0.99498138
0.99475817
0.99530514
0.99525969
0.99547916
1.0005516
1.0003755
1.0005571
1.0000459
1.0007798
1.000942
1.0014125
1.0013027
1.0017145
1.001914
1.0020893
1.0023881
1.0023103
1.0025993
1.0027314
1.0029807
1.0030111
1.0033693
1.0031743
1.0034782
1.0035735
1.0037637
1.0038661
1.0039874
1.0040584
1.0041509
1.0041886
1.0042651
1.0043057
1.0043567
1.0043847
1.004418
1.0044298
1.0044532
1.0044426
1.0044588
1.004442
1.0044381
1.0044153
1.0043936
1.0043626
1.0043265
1.0042862
1.0042354
1.004185
1.0041165
1.0040538
1.0039695
1.0038902
1.0038034
1.0037116
1.0036111
1.0034993
1.0033801
1.0032442
1.0031167
1.002967
1.0028567
1.0027247
1.0026067
1.0024696
1.0023371
1.0021766
1.0020422
1.0018581
1.0017529
1.0015804
1.0014282
1.0012496
1.0010549
1.000836
1.0005923
1.0003174
1.0000303
0.99972586
0.99949837
0.99927798
0.99931053
0.9989956
0.99886514
0.99862926
0.9983906
0.99808856
0.99786505
0.99751783
0.99751926
0.99713784
0.99686522
0.99647014
0.9960233
0.99546298
0.99503429
0.99459307
0.99547701
0.99472349
0.99477231
0.99451457
0.99425583
0.99409063
0.9946267
0.99430873
0.99432879
0.99422153
0.9941024
0.99479111
0.99463762
0.9949983
0.99479595
0.99531594
0.99527332
0.99548613
1.0005604
1.0003944
1.0005827
1.0001162
1.0007859
1.0009525
1.0014087
1.0013238
1.0017147
1.0019129
1.0020877
1.0023785
1.0023245
1.0025969
1.0027273
1.002971
1.0030094
1.0033516
1.0031868
1.0034676
1.0035638
1.0037478
1.0038527
1.0039735
1.0040469
1.0041391
1.0041799
1.0042553
1.0042969
1.0043479
1.0043771
1.0044107
1.0044236
1.0044475
1.0044376
1.0044548
1.0044388
1.0044355
1.0044137
1.0043926
1.0043623
1.0043266
1.0042869
1.0042368
1.0041863
1.0041195
1.004056
1.003975
1.0038945
1.0038081
1.003716
1.0036157
1.0035047
1.0033866
1.0032536
1.0031276
1.0029825
1.0028663
1.0027344
1.002613
1.0024752
1.0023408
1.0021824
1.0020455
1.0018672
1.001751
1.0015795
1.0014225
1.0012415
1.0010444
1.0008243
1.0005811
1.0003109
1.0000314
0.9997415
0.9995271