/*--------------------------------*- C++ -*----------------------------------*\
| =========                 |                                                 |
| \\      /  F ield         | OpenFOAM: The Open Source CFD Toolbox           |
|  \\    /   O peration     | Version:  v2006                                 |
|   \\  /    A nd           | Website:  www.openfoam.com                      |
|    \\/     M anipulation  |                                                 |
\*---------------------------------------------------------------------------*/
FoamFile
{
    version     2.0;
    format      ascii;
    class       surfaceScalarField;
    location    "4000";
    object      phi;
}
// * * * * * * * * * * * * * * * * * * * * * * * * * * * * * * * * * * * * * //

dimensions      [1 0 -1 0 0 0 0];
oriented        oriented;


internalField   nonuniform List<scalar> 
206789
(
-5.7146269e-08
-1.0871406e-08
6.8017717e-08
-4.067064e-08
-1.6475651e-08
-8.7436465e-08
4.6765713e-08
-1.5688568e-07
6.9449199e-08
-1.2483988e-07
-3.2045749e-08
-9.2475247e-08
-3.2366553e-08
-8.7853078e-08
-4.6201689e-09
-1.0832856e-07
2.0475457e-08
-9.5323567e-08
-1.3005038e-08
-8.1112743e-08
-1.4210847e-08
-7.0849111e-08
-1.0264295e-08
-6.9320619e-08
-1.5279145e-09
-9.1944631e-08
2.2622316e-08
-8.0886134e-08
-1.1056763e-08
-6.7263369e-08
-1.3622773e-08
-6.1717792e-08
-5.5455543e-09
-5.4037886e-08
-7.6799676e-09
-5.3743523e-08
-2.947425e-10
-7.6121796e-08
2.2376323e-08
-5.4289478e-08
-2.1829899e-08
-4.3298742e-08
-1.0991059e-08
-3.7609679e-08
-5.6887971e-09
-3.388609e-08
-3.7236158e-09
-3.0894849e-08
-2.9912167e-09
-2.8333497e-08
-2.5614365e-09
-2.6779935e-08
-1.553507e-09
-2.5827985e-08
-9.5200894e-10
-2.0058188e-08
-5.7696897e-09
-1.6722542e-08
-3.3356462e-09
-1.3758235e-08
-2.9643969e-09
-1.0954006e-08
-2.8041322e-09
-7.8102156e-09
-3.143878e-09
-4.3446727e-09
-3.4654587e-09
2.0416172e-10
-4.5488531e-09
4.4456114e-09
-4.2413971e-09
8.4967548e-09
-4.051132e-09
1.1524557e-08
-3.0278547e-09
1.5293243e-08
-3.7686741e-09
1.886756e-08
-3.5743745e-09
2.2989393e-08
-4.1218228e-09
2.7347308e-08
-4.3579081e-09
3.2230519e-08
-4.8832469e-09
3.7656771e-08
-5.4262676e-09
4.3975128e-08
-6.3183353e-09
5.1502893e-08
-7.5277469e-09
6.2329591e-08
-1.0826721e-08
7.048089e-08
-8.1513272e-09
6.3756235e-08
6.7246348e-09
6.7876199e-08
-4.1199812e-09
7.4834046e-08
-6.9578505e-09
8.2280638e-08
-7.446588e-09
9.1665587e-08
-9.384952e-09
1.0297552e-07
-1.130995e-08
1.2106727e-07
-1.8091769e-08
1.4788167e-07
-2.6814417e-08
1.4327193e-07
4.609798e-09
1.0174603e-07
4.152593e-08
9.8998858e-08
2.7471487e-09
1.0440489e-07
-5.4060533e-09
1.0853368e-07
-4.1288052e-09
1.1531584e-07
-6.7821743e-09
1.2321818e-07
-7.9023567e-09
1.3729977e-07
-1.4081601e-08
1.5187401e-07
-1.4574218e-08
1.169049e-07
3.4969126e-08
1.1052292e-07
6.3819543e-09
1.1361167e-07
-3.0887411e-09
1.1472864e-07
-1.1169942e-09
1.1756764e-07
-2.8389856e-09
1.208912e-07
-3.323587e-09
1.2517422e-07
-4.2830044e-09
1.3115516e-07
-5.9809798e-09
1.3976975e-07
-8.6145832e-09
1.5558176e-07
-1.5812106e-08
1.894087e-07
-3.3827497e-08
1.9892926e-07
-9.5197195e-09
1.1056993e-07
8.8360812e-08
9.8083021e-08
1.2485578e-08
1.0611428e-07
-8.0312213e-09
1.0783998e-07
-1.7258642e-09
1.1420414e-07
-6.3643496e-09
1.2276721e-07
-8.5630594e-09
1.3874702e-07
-1.5979963e-08
1.6374387e-07
-2.4996775e-08
1.2253696e-07
4.1206816e-08
1.0915465e-07
1.3382338e-08
1.1703734e-07
-7.8828016e-09
1.2483764e-07
-7.8001459e-09
1.382248e-07
-1.3387899e-08
1.5846844e-07
-2.0242774e-08
2.0618203e-07
-4.7715327e-08
2.4808437e-07
-4.190054e-08
9.2021671e-08
1.5606278e-07
7.8229846e-08
1.3791846e-08
1.1023587e-07
-3.2006048e-08
1.2706643e-07
-1.6830602e-08
1.6810938e-07
-4.1044651e-08
1.6576322e-07
2.3480429e-09
7.9233786e-08
8.6534133e-08
7.5846072e-08
3.3834843e-09
1.0264568e-07
-2.6799712e-08
1.316363e-07
-2.8990609e-08
1.2150544e-07
1.0131025e-08
4.8377879e-08
7.3127679e-08
4.1904529e-08
6.4737267e-09
6.087409e-08
-1.8969661e-08
7.3036396e-08
-1.2162228e-08
5.2314442e-08
2.0721912e-08
5.1991255e-08
3.2314666e-10
6.3327005e-08
-1.1335716e-08
-7.7644685e-09
7.109268e-08
-1.8913284e-07
-3.7942985e-08
2.1620445e-07
-1.5112448e-07
-5.4484006e-08
-2.9829809e-07
1.9393904e-07
-4.7358587e-07
2.4473673e-07
-3.8560904e-07
-1.200224e-07
-2.9186923e-07
-1.2610871e-07
-2.8625532e-07
-1.0231391e-08
-3.3342036e-07
6.7640417e-08
-2.9657888e-07
-4.984658e-08
-2.5426402e-07
-5.6525744e-08
-2.2533413e-07
-3.9194939e-08
-2.2773944e-07
8.7805784e-10
-2.8142868e-07
7.6309388e-08
-2.4999736e-07
-4.2485897e-08
-2.0961781e-07
-5.4002265e-08
-1.9411892e-07
-2.1044414e-08
-1.7111457e-07
-3.0684294e-08
-1.7893395e-07
7.5243857e-09
-2.2596896e-07
6.9408237e-08
-1.6795678e-07
-7.9838944e-08
-1.3338467e-07
-4.5563843e-08
-1.1757822e-07
-2.1494613e-08
-1.0535507e-07
-1.5946927e-08
-9.6697177e-08
-1.1649025e-08
-8.8493485e-08
-1.0765329e-08
-8.4330931e-08
-5.7159909e-09
-7.9386734e-08
-5.8962976e-09
-6.2886255e-08
-2.2269963e-08
-5.2112885e-08
-1.4108989e-08
-4.3223912e-08
-1.1853556e-08
-3.4249479e-08
-1.1778347e-08
-2.47603e-08
-1.2633248e-08
-1.3789101e-08
-1.4436488e-08
-1.6678057e-10
-1.8171254e-08
1.3209826e-08
-1.7617871e-08
2.5496412e-08
-1.6337757e-08
3.5401537e-08
-1.2932955e-08
4.6748617e-08
-1.5115823e-08
5.8054149e-08
-1.4879921e-08
7.0621497e-08
-1.6689287e-08
8.4087415e-08
-1.7823841e-08
9.9021977e-08
-1.9817898e-08
1.1547231e-07
-2.187656e-08
1.3464757e-07
-2.5493685e-08
1.5677034e-07
-2.9650482e-08
1.8851643e-07
-4.2572921e-08
2.1226185e-07
-3.1896719e-08
1.9988614e-07
1.9100206e-08
2.0951995e-07
-1.3753834e-08
2.2969746e-07
-2.7135362e-08
2.5170384e-07
-2.9452973e-08
2.7892332e-07
-3.6604456e-08
3.1142724e-07
-4.3813918e-08
3.6128565e-07
-6.7950229e-08
4.3369401e-07
-9.9222826e-08
4.3097778e-07
7.3261428e-09
3.3433579e-07
1.3816797e-07
3.1404186e-07
2.304103e-08
3.2570634e-07
-1.707059e-08
3.3702281e-07
-1.5445339e-08
3.558731e-07
-2.5632509e-08
3.7724882e-07
-2.9278127e-08
4.1686629e-07
-5.3699112e-08
4.5309672e-07
-5.0804631e-08
3.7735875e-07
1.107071e-07
3.5082224e-07
3.2918433e-08
3.5499814e-07
-7.2646369e-09
3.57717e-07
-3.8359118e-09
3.6471157e-07
-9.8335476e-09
3.7353681e-07
-1.2148875e-08
3.8522302e-07
-1.5969185e-08
4.0141718e-07
-2.2175239e-08
4.2532972e-07
-3.2527107e-08
4.6783199e-07
-5.8314571e-08
5.5754707e-07
-1.2354325e-07
5.87556e-07
-3.9527453e-08
3.8885247e-07
2.8706632e-07
3.2812529e-07
7.321099e-08
3.3963928e-07
-1.9545212e-08
3.4265282e-07
-4.7396017e-09
3.5868057e-07
-2.2392442e-08
3.8070182e-07
-3.0584305e-08
4.2643295e-07
-6.171139e-08
4.8874485e-07
-8.7308514e-08
4.0098183e-07
1.2896974e-07
3.5513896e-07
5.9225105e-08
3.694689e-07
-2.221292e-08
3.9018593e-07
-2.8516953e-08
4.2730801e-07
-5.0510943e-08
4.8204964e-07
-7.4983318e-08
6.1401514e-07
-1.7968293e-07
7.2094744e-07
-1.4883001e-07
3.6789221e-07
5.0911807e-07
2.8231051e-07
9.9373566e-08
3.5678794e-07
-1.0648362e-07
4.052932e-07
-6.5335985e-08
5.1662717e-07
-1.5238049e-07
5.1595631e-07
3.021181e-09
2.9828168e-07
3.042149e-07
2.6333457e-07
3.8325228e-08
3.3397605e-07
-9.7441321e-08
4.1590485e-07
-1.1091939e-07
3.8972077e-07
3.6315397e-08
1.9448224e-07
2.6836649e-07
1.5596593e-07
4.4990572e-08
2.0977475e-07
-7.2778571e-08
2.4093148e-07
-4.3318819e-08
1.8831948e-07
7.3333985e-08
1.8106625e-07
7.5762073e-09
2.1398968e-07
-4.4259065e-08
-2.9541131e-08
2.3576795e-07
-3.5017787e-07
-7.7875709e-08
3.9011066e-07
-3.0613481e-07
-9.8527116e-08
-5.5862264e-07
4.464268e-07
-8.1656495e-07
5.0267905e-07
-6.7171221e-07
-2.6487514e-07
-5.2209349e-07
-2.7572937e-07
-5.1943016e-07
-1.2892755e-08
-5.8411253e-07
1.3232276e-07
-5.2184333e-07
-1.1211584e-07
-4.5087642e-07
-1.2749267e-07
-4.0542639e-07
-8.4645685e-08
-4.1569856e-07
1.1150798e-08
-4.9181748e-07
1.5242664e-07
-4.3827452e-07
-9.6027104e-08
-3.7091023e-07
-1.2136661e-07
-3.4414553e-07
-4.7809082e-08
-3.0808642e-07
-6.6743563e-08
-3.2782092e-07
2.7258213e-08
-3.8894337e-07
1.3052913e-07
-2.9441119e-07
-1.7436867e-07
-2.3531767e-07
-1.0465766e-07
-2.083788e-07
-4.8433288e-08
-1.8667265e-07
-3.7653101e-08
-1.7169428e-07
-2.662741e-08
-1.5714609e-07
-2.5313576e-08
-1.4975617e-07
-1.3105844e-08
-1.395397e-07
-1.6112832e-08
-1.1164852e-07
-5.016104e-08
-9.2430351e-08
-3.3327175e-08
-7.6877405e-08
-2.740655e-08
-6.0838985e-08
-2.7816691e-08
-4.4242473e-08
-2.9229822e-08
-2.4863131e-08
-3.3815783e-08
-1.4174742e-09
-4.1616888e-08
2.2218647e-08
-4.1253939e-08
4.3754241e-08
-3.7873346e-08
6.1647657e-08
-3.082645e-08
8.1297451e-08
-3.4765581e-08
1.0127275e-07
-3.485533e-08
1.2306793e-07
-3.8484394e-08
1.4648762e-07
-4.1243512e-08
1.722693e-07
-4.5599598e-08
2.0049384e-07
-5.0101155e-08
2.3317947e-07
-5.8179226e-08
2.702626e-07
-6.6733579e-08
3.2245742e-07
-9.4767747e-08
3.6319554e-07
-7.2634886e-08
3.5147017e-07
3.0825594e-08
3.6589179e-07
-2.8175467e-08
3.9828583e-07
-5.9529393e-08
4.3501821e-07
-6.6185351e-08
4.7963055e-07
-8.1216791e-08
5.3263713e-07
-9.6820493e-08
6.1068201e-07
-1.4599513e-07
7.2246605e-07
-2.1100687e-07
7.3364321e-07
-3.8509599e-09
6.0570492e-07
2.6610631e-07
5.6262264e-07
6.612329e-08
5.7348982e-07
-2.7937768e-08
5.9096711e-07
-3.2922646e-08
6.2016394e-07
-5.4829337e-08
6.5410394e-07
-6.3218126e-08
7.157595e-07
-1.1535468e-07
7.7192827e-07
-1.0697337e-07
6.7582614e-07
2.0680926e-07
6.2808291e-07
8.0661656e-08
6.2715774e-07
-6.3394577e-09
6.3059534e-07
-7.2735288e-09
6.4066023e-07
-1.9898422e-08
6.5442223e-07
-2.5910885e-08
6.7310022e-07
-3.4647179e-08
6.9907676e-07
-4.8151784e-08
7.3781859e-07
-7.1268943e-08
8.0551627e-07
-1.2601232e-07
9.449244e-07
-2.6295189e-07
1.0018225e-06
-9.6424778e-08
7.3340122e-07
5.5548892e-07
6.1377383e-07
1.9283715e-07
6.1325877e-07
-1.9030096e-08
6.1563732e-07
-7.1183117e-09
6.3877218e-07
-4.5527464e-08
6.7290722e-07
-6.4719368e-08
7.4660833e-07
-1.3541263e-07
8.4314797e-07
-1.8384809e-07
7.2877331e-07
2.4334429e-07
6.4897796e-07
1.3902052e-07
6.6169498e-07
-3.4930053e-08
6.9357454e-07
-6.0396336e-08
7.5321531e-07
-1.1015239e-07
8.4163192e-07
-1.633991e-07
1.0523141e-06
-3.9036679e-07
1.2233713e-06
-3.1988567e-07
7.3998989e-07
9.924996e-07
5.6027588e-07
2.7908761e-07
6.5050605e-07
-1.9671379e-07
7.3020369e-07
-1.4503365e-07
9.0462539e-07
-3.2680394e-07
9.1495538e-07
-7.3068807e-09
5.9279738e-07
6.2637745e-07
5.0934275e-07
1.2177566e-07
6.1105595e-07
-1.9915465e-07
7.4348476e-07
-2.4334817e-07
7.0760812e-07
7.2192202e-08
4.0412784e-07
5.7184687e-07
3.1872184e-07
1.3039696e-07
3.9980282e-07
-1.5385962e-07
4.4883677e-07
-9.2352697e-08
3.691215e-07
1.5304919e-07
3.5092918e-07
2.5768513e-08
4.0296523e-07
-9.6295084e-08
-6.5529127e-08
4.3895461e-07
-5.4609716e-07
-1.2649211e-07
5.9471359e-07
-5.1523252e-07
-1.2939173e-07
-8.6859309e-07
7.9978703e-07
-1.1850635e-06
8.1914913e-07
-9.8098674e-07
-4.6895168e-07
-7.8624872e-07
-4.7046941e-07
-7.8658005e-07
-1.2559026e-08
-8.6018072e-07
2.0592332e-07
-7.6984616e-07
-2.0245045e-07
-6.7154891e-07
-2.2578997e-07
-6.1371628e-07
-1.4247896e-07
-6.3255171e-07
2.998676e-08
-7.2234642e-07
2.4221947e-07
-6.436593e-07
-1.7471231e-07
-5.5107547e-07
-2.1395039e-07
-5.1190512e-07
-8.6979385e-08
-4.6767345e-07
-1.1097519e-07
-4.9787777e-07
5.7462234e-08
-5.6400372e-07
1.9665241e-07
-4.3199561e-07
-3.0637408e-07
-3.4875066e-07
-1.8790325e-07
-3.0943573e-07
-8.7747627e-08
-2.7769302e-07
-6.9396005e-08
-2.5549772e-07
-4.8822616e-08
-2.3430736e-07
-4.6504153e-08
-2.2278926e-07
-2.4623867e-08
-2.0602986e-07
-3.287232e-08
-1.6602831e-07
-9.0162367e-08
-1.3764118e-07
-6.1714269e-08
-1.1455438e-07
-5.0493498e-08
-9.0738113e-08
-5.1632761e-08
-6.6239398e-08
-5.3728702e-08
-3.7714036e-08
-6.2341003e-08
-3.7481809e-09
-7.5582796e-08
3.1078346e-08
-7.6080334e-08
6.2959309e-08
-6.9754347e-08
8.979243e-08
-5.7659543e-08
1.1853949e-07
-6.351271e-08
1.4795352e-07
-6.4269385e-08
1.7973771e-07
-7.0268694e-08
2.1382891e-07
-7.5334735e-08
2.5111969e-07
-8.2890468e-08
2.9172696e-07
-9.0708394e-08
3.3823451e-07
-1.0468687e-07
3.9046164e-07
-1.1896068e-07
4.61682e-07
-1.6598822e-07
5.2091944e-07
-1.318723e-07
5.1548163e-07
3.6263268e-08
5.3581061e-07
-4.850449e-08
5.7891889e-07
-1.0263769e-07
6.3004292e-07
-1.1730938e-07
6.9111451e-07
-1.4228841e-07
7.6332242e-07
-1.6902845e-07
8.6510222e-07
-2.4777497e-07
1.0086373e-06
-3.5454196e-07
1.0430259e-06
-3.8239499e-08
9.0654886e-07
4.0258344e-07
8.4497388e-07
1.2769823e-07
8.482998e-07
-3.1263748e-08
8.6966433e-07
-5.4287246e-08
9.065842e-07
-9.174926e-08
9.518554e-07
-1.0848937e-07
1.0300511e-06
-1.9355045e-07
1.1057453e-06
-1.8266752e-07
1.0050218e-06
3.0753275e-07
9.420483e-07
1.4363513e-07
9.3066063e-07
5.0482239e-09
9.328072e-07
-9.4201557e-09
9.4432079e-07
-3.1412004e-08
9.6184077e-07
-4.3430915e-08
9.8635874e-07
-5.9165131e-08
1.0209323e-06
-8.2725445e-08
1.0726775e-06
-1.230141e-07
1.162428e-06
-2.1576308e-07
1.3415775e-06
-4.4210186e-07
1.4338201e-06
-1.8866633e-07
1.1342185e-06
8.5509205e-07
9.6202848e-07
3.6502578e-07
9.326476e-07
1.0350768e-08
9.2953496e-07
-4.0058564e-09
9.5534946e-07
-7.1342301e-08
9.9947756e-07
-1.088475e-07
1.095543e-06
-2.314784e-07
1.2245964e-06
-3.1290128e-07
1.1006798e-06
3.6726076e-07
9.942289e-07
2.454713e-07
9.9644918e-07
-3.7150523e-08
1.0356057e-06
-9.955261e-08
1.1139144e-06
-1.8846188e-07
1.2338854e-06
-2.8336923e-07
1.5089882e-06
-6.6547121e-07
1.7509167e-06
-5.6181175e-07
1.1999442e-06
1.5434722e-06
9.3110687e-07
5.4792503e-07
1.0011126e-06
-2.6671964e-07
1.1065034e-06
-2.5042457e-07
1.3327526e-06
-5.5305471e-07
1.3648831e-06
-3.9435366e-08
9.6774957e-07
1.0235162e-06
8.2937041e-07
2.6015024e-07
9.4241194e-07
-3.1219631e-07
1.1189349e-06
-4.1987115e-07
1.0818521e-06
1.0927538e-07
6.871516e-07
9.665477e-07
5.4639395e-07
2.7115511e-07
6.4017119e-07
-2.4763688e-07
7.0638396e-07
-1.585653e-07
6.03454e-07
2.5597925e-07
5.7245404e-07
5.6768294e-08
6.3809919e-07
-1.6194015e-07
-1.1569826e-07
6.8826988e-07
-7.8460154e-07
-1.7647412e-07
8.3458362e-07
-7.8550604e-07
-1.284873e-07
-1.2275628e-06
1.2418438e-06
-1.5755016e-06
1.167088e-06
-1.313405e-06
-7.3104835e-07
-1.0856906e-06
-6.9818519e-07
-1.0869589e-06
-1.1289381e-08
-1.1600853e-06
2.7904979e-07
-1.04014e-06
-3.2239584e-07
-9.1732511e-07
-3.4860489e-07
-8.5163585e-07
-2.0816878e-07
-8.7771549e-07
5.6066765e-08
-9.7129674e-07
3.3579959e-07
-8.6533478e-07
-2.8067297e-07
-7.4991201e-07
-3.2937327e-07
-6.9799899e-07
-1.3889236e-07
-6.505488e-07
-1.5842559e-07
-6.8774367e-07
9.4656209e-08
-7.4922113e-07
2.5812929e-07
-5.7960679e-07
-4.7598649e-07
-4.7336819e-07
-2.9414214e-07
-4.2049024e-07
-1.4062544e-07
-3.7834739e-07
-1.1153888e-07
-3.4806343e-07
-7.9106636e-08
-3.1993485e-07
-7.4632748e-08
-3.0316092e-07
-4.1397734e-08
-2.785763e-07
-5.7456991e-08
-2.258638e-07
-1.4287479e-07
-1.8770323e-07
-9.9874879e-08
-1.5621481e-07
-8.1981917e-08
-1.2393489e-07
-8.3912603e-08
-9.074872e-08
-8.6914934e-08
-5.2443582e-08
-1.0064615e-07
-7.4287047e-09
-1.2059762e-07
3.9431921e-08
-1.2294087e-07
8.2781804e-08
-1.1310429e-07
1.1946661e-07
-9.4344406e-08
1.5805589e-07
-1.0210194e-07
1.976165e-07
-1.0383015e-07
2.4005841e-07
-1.1271046e-07
2.8539412e-07
-1.2067044e-07
3.3467975e-07
-1.3217609e-07
3.8806249e-07
-1.4409122e-07
4.4844334e-07
-1.6506758e-07
5.1566554e-07
-1.8618283e-07
6.0407116e-07
-2.5439384e-07
6.8224872e-07
-2.1004993e-07
6.8818739e-07
3.0324659e-08
7.1673055e-07
-7.7047666e-08
7.6949853e-07
-1.5540566e-07
8.3407767e-07
-1.818885e-07
9.102287e-07
-2.1843943e-07
9.997908e-07
-2.5859055e-07
1.1204951e-06
-3.6847932e-07
1.2876267e-06
-5.2167351e-07
1.3496654e-06
-1.0027815e-07
1.2243618e-06
5.2788703e-07
1.1552543e-06
1.9680573e-07
1.1489254e-06
-2.4934771e-08
1.1712713e-06
-7.6633203e-08
1.2130681e-06
-1.3354598e-07
1.2676145e-06
-1.6303582e-07
1.3570847e-06
-2.8302067e-07
1.4500141e-06
-2.7559681e-07
1.3567938e-06
4.0075301e-07
1.2878322e-06
2.1259678e-07
1.2647347e-06
2.8145741e-08
1.263289e-06
-7.9744532e-09
1.2744325e-06
-4.2555562e-08
1.2942199e-06
-6.3218228e-08
1.3231316e-06
-8.8076858e-08
1.3647528e-06
-1.243466e-07
1.4273804e-06
-1.8564175e-07
1.5353537e-06
-3.2373638e-07
1.744287e-06
-6.5103552e-07
1.874923e-06
-3.1930173e-07
1.5782441e-06
1.1517717e-06
1.370377e-06
5.7289203e-07
1.302884e-06
7.784389e-08
1.2873728e-06
1.150524e-08
1.3105466e-06
-9.451624e-08
1.3613787e-06
-1.5967967e-07
1.4733376e-06
-3.4343737e-07
1.6307717e-06
-4.7033529e-07
1.511799e-06
4.8623329e-07
1.3901374e-06
3.6713302e-07
1.3767524e-06
-2.3765577e-08
1.4180602e-06
-1.4086024e-07
1.5100837e-06
-2.8048582e-07
1.6577102e-06
-4.3099524e-07
1.982281e-06
-9.9004305e-07
2.2956841e-06
-8.7521408e-07
1.7363438e-06
2.1028126e-06
1.3992449e-06
8.8502405e-07
1.421207e-06
-2.8868174e-07
1.5399704e-06
-3.6918795e-07
1.8040552e-06
-8.1714078e-07
1.8644782e-06
-9.9857053e-08
1.4249103e-06
1.4630871e-06
1.2337219e-06
4.5133584e-07
1.3380476e-06
-4.1652222e-07
1.5468724e-06
-6.286959e-07
1.5155068e-06
1.406411e-07
1.0521475e-06
1.4299071e-06
8.5241711e-07
4.7088574e-07
9.415144e-07
-3.3673419e-07
1.0208433e-06
-2.3789419e-07
8.9973172e-07
3.7709078e-07
8.5453384e-07
1.019662e-07
9.2661466e-07
-2.3402095e-07
-1.7833184e-07
9.8924932e-07
-1.0736291e-06
-2.1773795e-07
1.114893e-06
-1.120825e-06
-8.1291429e-08
-1.6313941e-06
1.7524125e-06
-1.9840322e-06
1.5197258e-06
-1.6686625e-06
-1.0464179e-06
-1.4197034e-06
-9.4714585e-07
-1.4178927e-06
-1.309815e-08
-1.4815505e-06
3.4270752e-07
-1.3318725e-06
-4.7207394e-07
-1.1886403e-06
-4.9183711e-07
-1.1190151e-06
-2.7779447e-07
-1.1487795e-06
8.5831522e-08
-1.2361997e-06
4.2321837e-07
-1.1019144e-06
-4.1495677e-07
-9.6662043e-07
-4.6466719e-07
-9.0262258e-07
-2.0289013e-07
-8.5589447e-07
-2.0515365e-07
-8.9486213e-07
1.3362352e-07
-9.4253966e-07
3.0580475e-07
-7.3602954e-07
-6.8249453e-07
-6.0850949e-07
-4.2166277e-07
-5.4108263e-07
-2.0805179e-07
-4.8826239e-07
-1.6435932e-07
-4.4907951e-07
-1.1828944e-07
-4.1365562e-07
-1.1005684e-07
-3.903113e-07
-6.474198e-08
-3.5665387e-07
-9.1114507e-08
-2.9084607e-07
-2.0868236e-07
-2.4241753e-07
-1.4830339e-07
-2.0169756e-07
-1.2270198e-07
-1.6031694e-07
-1.2529305e-07
-1.1770786e-07
-1.2952415e-07
-6.9130286e-08
-1.4922362e-07
-1.2780303e-08
-1.7694762e-07
4.6758968e-08
-1.8248001e-07
1.0270037e-07
-1.6904574e-07
1.5006531e-07
-1.4170931e-07
1.9916217e-07
-1.5119886e-07
2.4942212e-07
-1.5409014e-07
3.0303707e-07
-1.663255e-07
3.6002502e-07
-1.7765842e-07
4.2157952e-07
-1.9373068e-07
4.8787004e-07
-2.1038173e-07
5.6187073e-07
-2.3906835e-07
6.4356395e-07
-2.6787603e-07
7.4703122e-07
-3.5786122e-07
8.4348906e-07
-3.0650776e-07
8.6438748e-07
9.4261172e-09
9.0430435e-07
-1.1696458e-07
9.6654483e-07
-2.1764616e-07
1.0434254e-06
-2.5876911e-07
1.1330172e-06
-3.0803122e-07
1.2376529e-06
-3.6322628e-07
1.3725542e-06
-5.0338067e-07
1.5554602e-06
-7.0457952e-07
1.6452379e-06
-1.9005581e-07
1.5448241e-06
6.2830087e-07
1.4818875e-06
2.5974234e-07
1.4695211e-06
-1.2568422e-08
1.4913805e-06
-9.8492646e-08
1.535643e-06
-1.7780857e-07
1.5969346e-06
-2.2432743e-07
1.6930028e-06
-3.7908895e-07
1.7997132e-06
-3.8230719e-07
1.7214126e-06
4.7905364e-07
1.656244e-06
2.7776532e-07
1.6246999e-06
5.9689807e-08
1.6187369e-06
-2.0114458e-09
1.6280038e-06
-5.1822487e-08
1.6485372e-06
-8.375172e-08
1.6803116e-06
-1.1985119e-07
1.7272849e-06
-1.7132e-07
1.798478e-06
-2.5683485e-07
1.9205467e-06
-4.458053e-07
2.1494716e-06
-8.7996076e-07
2.3166197e-06
-4.8644905e-07
2.048065e-06
1.4203275e-06
1.8275941e-06
7.9336194e-07
1.723639e-06
1.81799e-07
1.6900467e-06
4.5097381e-08
1.7050171e-06
-1.0948694e-07
1.7582157e-06
-2.1287836e-07
1.879254e-06
-4.6447594e-07
2.0591148e-06
-6.5019599e-07
1.954988e-06
5.9035998e-07
1.8311272e-06
4.9099381e-07
1.802187e-06
5.1744152e-09
1.8409504e-06
-1.7962342e-07
1.9411334e-06
-3.8066939e-07
2.1108191e-06
-6.0068025e-07
2.4702961e-06
-1.3495213e-06
2.8499233e-06
-1.2548393e-06
2.3289946e-06
2.6237415e-06
1.957301e-06
1.2567178e-06
1.9188128e-06
-2.5019374e-07
2.0340883e-06
-4.8446353e-07
2.3190827e-06
-1.1021362e-06
2.4090994e-06
-1.8987217e-07
1.9579669e-06
1.9142235e-06
1.7245436e-06
6.8475573e-07
1.8033797e-06
-4.9535838e-07
2.0279528e-06
-8.53269e-07
2.0064107e-06
1.6218346e-07
1.5002137e-06
1.9361045e-06
1.2437797e-06
7.2732017e-07
1.3100373e-06
-4.0299182e-07
1.3940144e-06
-3.2187107e-07
1.2598201e-06
5.1128512e-07
1.1992524e-06
1.6253376e-07
1.2694649e-06
-3.0423339e-07
-2.4954027e-07
1.3406746e-06
-1.4191779e-06
-2.3911635e-07
1.4405564e-06
-1.5203456e-06
1.9876178e-08
-2.0728356e-06
2.3049026e-06
-2.4061272e-06
1.8530176e-06
-2.0449026e-06
-1.4076426e-06
-1.7845647e-06
-1.2074847e-06
-1.7743351e-06
-2.3326923e-08
-1.8209799e-06
3.8935232e-07
-1.6431254e-06
-6.4992849e-07
-1.4843828e-06
-6.5057972e-07
-1.4132063e-06
-3.4897143e-07
-1.4410139e-06
1.1363934e-07
-1.5134483e-06
4.956521e-07
-1.3512811e-06
-5.7712309e-07
-1.1994882e-06
-6.1646025e-07
-1.1247176e-06
-2.7766066e-07
-1.0807905e-06
-2.4908107e-07
-1.1150387e-06
1.6787054e-07
-1.1412402e-06
3.3200652e-07
-8.9968598e-07
-9.2404729e-07
-7.5296835e-07
-5.6838073e-07
-6.7035479e-07
-2.9066523e-07
-6.0664648e-07
-2.2806771e-07
-5.5784009e-07
-1.6709594e-07
-5.1463146e-07
-1.5326542e-07
-4.8325922e-07
-9.6114171e-08
-4.3941531e-07
-1.3495846e-07
-3.6041706e-07
-2.8768056e-07
-3.0136e-07
-2.0736051e-07
-2.5066615e-07
-1.7339579e-07
-1.9962084e-07
-1.7633829e-07
-1.4695469e-07
-1.8219037e-07
-8.7796949e-08
-2.0838143e-07
-2.0101542e-08
-2.4464294e-07
5.2599521e-08
-2.5518094e-07
1.2207109e-07
-2.3851745e-07
1.8082256e-07
-2.0046081e-07
2.4095072e-07
-2.1132699e-07
3.0235249e-07
-2.1549211e-07
3.674647e-07
-2.314375e-07
4.3625456e-07
-2.4644827e-07
5.1006637e-07
-2.6754246e-07
5.8904923e-07
-2.893647e-07
6.7608589e-07
-3.2610483e-07
7.7124218e-07
-3.6303225e-07
8.8728008e-07
-4.7389913e-07
1.0002231e-06
-4.1945079e-07
1.0384272e-06
-2.8777963e-08
1.0925466e-06
-1.7108395e-07
1.1648736e-06
-2.8997319e-07
1.2529328e-06
-3.4682823e-07
1.3541764e-06
-4.0927489e-07
1.4713586e-06
-4.804084e-07
1.6162441e-06
-6.4826615e-07
1.8082381e-06
-8.9657352e-07
1.9225829e-06
-3.0440059e-07
1.8540333e-06
6.9685049e-07
1.8091005e-06
3.0467512e-07
1.7983577e-06
-1.8256141e-09
1.8212091e-06
-1.21344e-07
1.8669153e-06
-2.2351469e-07
1.9327165e-06
-2.9012866e-07
2.0314483e-06
-4.7782069e-07
2.148238e-06
-4.9909694e-07
2.0886043e-06
5.3868741e-07
2.0349608e-06
3.3140888e-07
2.0009709e-06
9.3679697e-08
1.9920172e-06
6.9422119e-09
1.9991023e-06
-5.8907572e-08
2.0193702e-06
-1.0401959e-07
2.0527032e-06
-1.5318416e-07
2.1033564e-06
-2.2197317e-07
2.1808669e-06
-3.3434537e-07
2.3128741e-06
-5.7781251e-07
2.5532634e-06
-1.1203502e-06
2.7513286e-06
-6.8451392e-07
2.5261444e-06
1.6455119e-06
2.3156803e-06
1.0038256e-06
2.1861752e-06
3.1130417e-07
2.1334851e-06
9.7787391e-08
2.136091e-06
-1.1209289e-07
2.1870458e-06
-2.6383325e-07
2.3104156e-06
-5.8784574e-07
2.5063243e-06
-8.4610472e-07
2.4221508e-06
6.7453343e-07
2.3071023e-06
6.060424e-07
2.2670776e-06
4.5199064e-08
2.3006309e-06
-2.1317656e-07
2.4036264e-06
-4.8366514e-07
2.5886454e-06
-7.856989e-07
2.9694239e-06
-1.7303004e-06
3.4054611e-06
-1.6908763e-06
2.9536553e-06
3.0755473e-06
2.5847706e-06
1.6256025e-06
2.4904459e-06
-1.5586897e-07
2.5873541e-06
-5.8137169e-07
2.8755873e-06
-1.3903702e-06
2.9914101e-06
-3.0569419e-07
2.5528839e-06
2.3527514e-06
2.2927417e-06
9.4489636e-07
2.3357724e-06
-5.3838917e-07
2.5577805e-06
-1.0752771e-06
2.5465215e-06
1.7344248e-07
2.0222343e-06
2.4603917e-06
1.7159463e-06
1.0336083e-06
1.7428589e-06
-4.2990435e-07
1.8194014e-06
-3.9841358e-07
1.6751488e-06
6.5553762e-07
1.5975779e-06
2.401047e-07
1.6574888e-06
-3.6414434e-07
-3.236603e-07
1.7316095e-06
-1.8231553e-06
-2.3099151e-07
1.8150304e-06
-1.9772458e-06
1.7396678e-07
-2.541928e-06
2.8695844e-06
-2.8368509e-06
2.1479402e-06
-2.4382793e-06
-1.8062139e-06
-2.1733754e-06
-1.4723897e-06
-2.1492991e-06
-4.7401694e-08
-2.173662e-06
4.1371515e-07
-1.9705849e-06
-8.5300561e-07
-1.801098e-06
-8.2006669e-07
-1.7287092e-06
-4.2136062e-07
-1.7478138e-06
1.3274417e-07
-1.7984154e-06
5.4625264e-07
-1.6101911e-06
-7.6534628e-07
-1.445442e-06
-7.812093e-07
-1.3612068e-06
-3.6189573e-07
-1.3196569e-06
-2.9063086e-07
-1.342582e-06
1.9079526e-07
-1.3421473e-06
3.3157034e-07
-1.0686428e-06
-1.1975504e-06
-9.0496348e-07
-7.320606e-07
-8.0694577e-07
-3.8868251e-07
-7.3217432e-07
-3.0283937e-07
-6.7311664e-07
-2.2615355e-07
-6.2144622e-07
-2.0493601e-07
-5.80567e-07
-1.3699333e-07
-5.2564969e-07
-1.8987584e-07
-4.3370263e-07
-3.7962738e-07
-3.6381461e-07
-2.7724849e-07
-3.0255734e-07
-2.3465311e-07
-2.4138712e-07
-2.3750838e-07
-1.7819872e-07
-2.4537885e-07
-1.0837841e-07
-2.7820167e-07
-2.9624423e-08
-3.2339692e-07
5.6375294e-08
-3.4118055e-07
1.3999079e-07
-3.2213298e-07
2.1069016e-07
-2.7116016e-07
2.8219165e-07
-2.8282853e-07
3.5487371e-07
-2.8817422e-07
4.3150607e-07
-3.0806992e-07
5.1196986e-07
-3.2691211e-07
5.9768324e-07
-3.5325592e-07
6.8876628e-07
-3.8044776e-07
7.8788029e-07
-4.252189e-07
8.9506613e-07
-4.7021808e-07
1.0210127e-06
-5.9984577e-07
1.1479776e-06
-5.4641578e-07
1.204686e-06
-8.5486394e-08
1.2744533e-06
-2.4085128e-07
1.3577684e-06
-3.7328835e-07
1.4561545e-06
-4.452143e-07
1.5674521e-06
-5.2057252e-07
1.6948411e-06
-6.0779742e-07
1.8463854e-06
-7.9981053e-07
2.0427921e-06
-1.0929802e-06
2.1762164e-06
-4.3782485e-07
2.1403301e-06
7.3273682e-07
2.1207942e-06
3.2421103e-07
2.1202442e-06
-1.2756774e-09
2.148003e-06
-1.4910283e-07
2.1962462e-06
-2.7175796e-07
2.2654433e-06
-3.5932582e-07
2.3641793e-06
-5.7655675e-07
2.4878013e-06
-6.2271889e-07
2.4483789e-06
5.7810978e-07
2.4104273e-06
3.6936047e-07
2.3807342e-06
1.2337285e-07
2.372372e-06
1.530435e-08
2.3786387e-06
-6.5174333e-08
2.3987185e-06
-1.2409937e-07
2.4330062e-06
-1.8747192e-07
2.4861821e-06
-2.7514916e-07
2.5682208e-06
-4.1638409e-07
2.706615e-06
-7.1620684e-07
2.9512169e-06
-1.3649522e-06
3.1734734e-06
-9.067699e-07
2.9975444e-06
1.8214416e-06
2.8134528e-06
1.1879166e-06
2.6743075e-06
4.5044944e-07
2.607128e-06
1.6496685e-07
2.5965453e-06
-1.0151047e-07
2.641744e-06
-3.0903206e-07
2.7617659e-06
-7.078679e-07
2.9673662e-06
-1.051705e-06
2.9042904e-06
7.3760912e-07
2.8053218e-06
7.0501093e-07
2.7609737e-06
8.9546993e-08
2.7894746e-06
-2.4167718e-07
2.8915329e-06
-5.8572383e-07
3.0854828e-06
-9.7964828e-07
3.4769151e-06
-2.1217334e-06
3.9573844e-06
-2.1713442e-06
3.5876974e-06
3.4452345e-06
3.252991e-06
1.960309e-06
3.1202072e-06
-2.3085316e-08
3.1919383e-06
-6.5310288e-07
3.4682975e-06
-1.66673e-06
3.6033478e-06
-4.4074336e-07
3.1926035e-06
2.7634985e-06
2.9223272e-06
1.2151704e-06
2.9272167e-06
-5.4327881e-07
3.131485e-06
-1.2795453e-06
3.1272751e-06
1.7765273e-07
2.6034462e-06
2.9842209e-06
2.2571127e-06
1.3799421e-06
2.2330995e-06
-4.0589108e-07
2.2889686e-06
-4.5428253e-07
2.1333661e-06
8.1114022e-07
2.0366406e-06
3.3683001e-07
2.0790206e-06
-4.0652428e-07
-3.9413821e-07
2.1494994e-06
-2.2819468e-06
-1.8833779e-07
2.2392932e-06
-2.4793094e-06
3.713293e-07
-3.0274289e-06
3.417704e-06
-3.2708004e-06
2.3913119e-06
-2.8428506e-06
-2.2341638e-06
-2.5773102e-06
-1.7379306e-06
-2.5350584e-06
-8.9653211e-08
-2.5341188e-06
4.1277563e-07
-2.3093226e-06
-1.0778019e-06
-2.1328365e-06
-9.9655274e-07
-2.0577367e-06
-4.9646081e-07
-2.0617993e-06
1.3680679e-07
-2.0859012e-06
5.7035436e-07
-1.8744383e-06
-9.7680866e-07
-1.699902e-06
-9.5574583e-07
-1.6067131e-06
-4.5508458e-07
-1.5643254e-06
-3.3301895e-07
-1.5711153e-06
1.9758384e-07
-1.5419509e-06
3.0240696e-07
-1.2406185e-06
-1.4988816e-06
-1.0619919e-06
-9.1068761e-07
-9.488947e-07
-5.0177953e-07
-8.6287885e-07
-3.8885535e-07
-7.9305463e-07
-2.9597795e-07
-7.3204981e-07
-2.6594071e-07
-6.8032864e-07
-1.8871447e-07
-6.1372404e-07
-2.5648046e-07
-5.0949131e-07
-4.8386012e-07
-4.2873627e-07
-3.5800362e-07
-3.5656181e-07
-3.068275e-07
-2.8495383e-07
-3.0911624e-07
-2.1107776e-07
-3.1925505e-07
-1.3070891e-07
-3.5857063e-07
-4.1465682e-08
-4.1264004e-07
5.762651e-08
-4.4027253e-07
1.5547076e-07
-4.1997747e-07
2.3843701e-07
-3.5412639e-07
3.2134733e-07
-3.6573883e-07
4.0531298e-07
-3.7214009e-07
4.9318594e-07
-3.9594263e-07
5.8484589e-07
-4.1857204e-07
6.8179364e-07
-4.5020363e-07
7.8404829e-07
-4.8270251e-07
8.941093e-07
-5.3527973e-07
1.0116872e-06
-5.8779584e-07
1.1455695e-06
-7.3372811e-07
1.2839191e-06
-6.8476546e-07
1.3589186e-06
-1.6048576e-07
1.4442387e-06
-3.261714e-07
1.5392765e-06
-4.6832618e-07
1.6476599e-06
-5.5359768e-07
1.768117e-06
-6.4102957e-07
1.9040732e-06
-7.4375362e-07
2.0606464e-06
-9.563837e-07
2.2587432e-06
-1.291077e-06
2.4046761e-06
-5.8375776e-07
2.3985694e-06
7.3884358e-07
2.406509e-06
3.1627139e-07
2.4222751e-06
-1.7041769e-08
2.4592715e-06
-1.8609918e-07
2.5127894e-06
-3.2527579e-07
2.58591e-06
-4.3244644e-07
2.6841285e-06
-6.7477519e-07
2.8122353e-06
-7.5082565e-07
2.792577e-06
5.9776804e-07
2.7715482e-06
3.9038929e-07
2.7514668e-06
1.434543e-07
2.7479713e-06
1.8799821e-08
2.7562241e-06
-7.3427057e-08
2.7774826e-06
-1.4535785e-07
2.8131791e-06
-2.2316843e-07
2.8685686e-06
-3.3053869e-07
2.9541868e-06
-5.0200229e-07
3.09628e-06
-8.583e-07
3.339327e-06
-1.6079992e-06
3.5802604e-06
-1.1477031e-06
3.4540439e-06
1.9476581e-06
3.3017921e-06
1.3401683e-06
3.1676506e-06
5.8459096e-07
3.0954294e-06
2.3718808e-07
3.0749654e-06
-8.1046455e-08
3.1135494e-06
-3.4761621e-07
3.226402e-06
-8.2072045e-07
3.4361701e-06
-1.261473e-06
3.3931962e-06
7.805829e-07
3.3138962e-06
7.8431104e-07
3.2716528e-06
1.3179041e-07
3.2975902e-06
-2.6761444e-07
3.3974086e-06
-6.8554233e-07
3.5957375e-06
-1.1779771e-06
3.9898211e-06
-2.5158173e-06
4.5026893e-06
-2.6842126e-06
4.2152505e-06
3.7326733e-06
3.9342406e-06
2.241319e-06
3.7851138e-06
1.2604145e-07
3.8348723e-06
-7.0286129e-07
4.0910989e-06
-1.922957e-06
4.2385228e-06
-5.8816711e-07
3.8624868e-06
3.1395353e-06
3.5966246e-06
1.4810318e-06
3.5684209e-06
-5.1507527e-07
3.7468058e-06
-1.4579302e-06
3.7446628e-06
1.7979576e-07
3.231326e-06
3.4975577e-06
2.8564516e-06
1.7548165e-06
2.7772732e-06
-3.2671263e-07
2.8010891e-06
-4.7809842e-07
2.6286728e-06
9.8355634e-07
2.5103712e-06
4.5513174e-07
2.5297771e-06
-4.2593021e-07
-4.5438163e-07
2.5900208e-06
-2.7867105e-06
-1.1278344e-07
2.7111561e-06
-3.0116187e-06
5.9623755e-07
-3.5190158e-06
3.9251008e-06
-3.7030053e-06
2.5753012e-06
-3.2522744e-06
-2.6848945e-06