/*--------------------------------*- C++ -*----------------------------------*\
| =========                 |                                                 |
| \\      /  F ield         | OpenFOAM: The Open Source CFD Toolbox           |
|  \\    /   O peration     | Version:  v2006                                 |
|   \\  /    A nd           | Website:  www.openfoam.com                      |
|    \\/     M anipulation  |                                                 |
\*---------------------------------------------------------------------------*/
FoamFile
{
    version     2.0;
    format      ascii;
    class       volScalarField;
    location    "4000";
    object      pMean;
}
// * * * * * * * * * * * * * * * * * * * * * * * * * * * * * * * * * * * * * //

dimensions      [1 -1 -2 0 0 0 0];


internalField   nonuniform List<scalar> 
103740
(
0.99965649
0.99929616
0.99917752
0.99772475
0.99990634
0.99990324
1.0005574
0.99993015
1.0008756
1.0010614
1.0012661
1.0015898
1.0010319
1.0018296
1.0019966
1.0022931
1.0022732
1.0027113
1.0018373
1.0030409
1.0030544
1.0033845
1.0034552
1.0036164
1.0036824
1.0037975
1.0037828
1.003988
1.0040262
1.0041176
1.0041507
1.0042144
1.0042203
1.0043024
1.0042116
1.004384
1.0043449
1.0043914
1.0043683
1.0043795
1.0043604
1.0043528
1.0043313
1.004309
1.0042817
1.0042408
1.0042039
1.0041126
1.0041043
1.004042
1.0039891
1.0039231
1.0038486
1.0037624
1.0036527
1.0034741
1.0032661
1.0033571
1.003248
1.0031986
1.0031028
1.0030254
1.0028775
1.0028011
1.0024508
1.0025659
1.0024295
1.0023502
1.0022392
1.0021207
1.0019799
1.0018266
1.0016261
1.0014094
1.0010732
1.0006364
0.99980913
1.0004692
1.0002403
1.0002036
1.0000504
0.99991833
0.99961148
0.99945943
0.99857426
0.99892015
0.99873188
0.99856576
0.99828126
0.99799495
0.99734389
0.99686919
0.99437425
0.99672489
0.99617028
0.99625661
0.99602712
0.99554434
0.99467731
0.99586925
0.99562093
0.99565471
0.99535094
0.99481562
0.9959263
0.99574836
0.99615273
0.99575292
0.99636947
0.99631591
0.99652444
0.99965597
0.99929666
0.9991795
0.99772482
0.9998971
0.99989987
1.0005573
0.99992866
1.0008688
1.0010586
1.0012624
1.0015915
1.0010304
1.0018211
1.0019919
1.0022904
1.0022689
1.0027159
1.0018334
1.0030247
1.0030489
1.0033785
1.0034516
1.003613
1.0036797
1.003796
1.00378
1.0039839
1.0040239
1.0041155
1.0041491
1.0042132
1.0042189
1.0043024
1.0042103
1.0043813
1.0043446
1.0043908
1.0043685
1.0043796
1.0043607
1.0043532
1.0043318
1.0043096
1.0042823
1.0042414
1.0042049
1.0041137
1.0041048
1.0040426
1.0039896
1.0039235
1.0038486
1.003762
1.0036517
1.003474
1.0032676
1.003357
1.0032477
1.0031979
1.0031017
1.0030236
1.0028753
1.0027966
1.0024502
1.0025656
1.0024272
1.0023478
1.002236
1.0021168
1.0019751
1.0018205
1.0016186
1.0013989
1.0010581
1.0006141
0.99980963
1.0004757
1.0002362
1.0002005
1.0000456
0.99991092
0.9996035
0.99944241
0.99856632
0.99892265
0.99872661
0.99855901
0.99827268
0.99798104
0.99732704
0.99683109
0.99437543
0.99674313
0.99616548
0.99625497
0.99602005
0.99553317
0.99468052
0.99587568
0.9956193
0.99565277
0.99534641
0.99481875
0.99593036
0.99574917
0.99615275
0.99575374
0.99637132
0.99631634
0.99652467
0.99965556
0.99929702
0.99918136
0.99772612
0.99988934
0.99989694
1.0005571
0.99992856
1.000863
1.0010562
1.0012592
1.0015927
1.0010305
1.001814
1.0019878
1.0022879
1.0022651
1.0027195
1.0018334
1.0030111
1.0030441
1.0033733
1.0034485
1.00361
1.0036772
1.0037947
1.0037778
1.0039804
1.0040219
1.0041136
1.0041476
1.0042122
1.0042176
1.0043024
1.0042096
1.004379
1.0043442
1.0043902
1.0043684
1.0043795
1.0043609
1.0043533
1.004332
1.0043098
1.0042826
1.0042416
1.0042054
1.0041147
1.004105
1.0040431
1.0039898
1.0039235
1.0038486
1.0037618
1.003651
1.0034745
1.00327
1.0033568
1.0032475
1.0031973
1.0031008
1.003022
1.0028734
1.002793
1.0024506
1.0025652
1.0024251
1.0023457
1.0022333
1.0021134
1.0019709
1.0018152
1.001612
1.0013897
1.0010452
1.0005969
0.99981321
1.0004807
1.0002324
1.0001977
1.0000415
0.9999045
0.99959648
0.99942809
0.99856217
0.99892483
0.99872193
0.99855315
0.99826519
0.99796898
0.99731239
0.99679961
0.99438139
0.99675778
0.99616105
0.9962535
0.99601405
0.99552436
0.9946845
0.995881
0.99561785
0.99565113
0.9953431
0.99482193
0.99593383
0.99574962
0.9961527
0.99575452
0.99637289
0.99631657
0.99652479
0.99965516
0.99929769
0.9991836
0.99773023
0.9998821
0.99989402
1.0005568
0.9999292
1.0008573
1.0010537
1.0012559
1.001594
1.0010314
1.0018072
1.0019836
1.0022853
1.0022612
1.0027229
1.0018351
1.0029973
1.003039
1.0033677
1.0034452
1.0036068
1.0036747
1.0037933
1.0037756
1.0039768
1.0040198
1.0041117
1.0041461
1.0042111
1.0042163
1.0043022
1.0042093
1.0043767
1.0043439
1.0043897
1.0043686
1.0043795
1.0043612
1.0043536
1.0043325
1.0043103
1.0042833
1.0042423
1.0042064
1.0041161
1.0041054
1.0040437
1.0039903
1.003924
1.0038488
1.0037616
1.0036505
1.0034762
1.0032738
1.0033566
1.0032475
1.0031967
1.0030999
1.0030204
1.0028716
1.0027895
1.002452
1.0025646
1.0024232
1.0023435
1.0022304
1.0021098
1.0019666
1.0018096
1.001605
1.0013801
1.0010319
1.0005816
0.99982143
1.0004852
1.0002291
1.0001948
1.0000371
0.99989769
0.99958909
0.99941339
0.99855923
0.9989268
0.99871709
0.99854691
0.99825725
0.99795617
0.99729699
0.99676988
0.99439501
0.99677286
0.9961569
0.9962519
0.9960079
0.99551627
0.99469028
0.99588672
0.99561643
0.99564955
0.9953397
0.99482589
0.99593751
0.99575044
0.99615278
0.99575546
0.9963746
0.99631699
0.99652503
0.99965486
0.9992986
0.99918673
0.99773825
0.99987484
0.999891
1.0005562
0.99993101
1.0008515
1.0010511
1.0012524
1.0015949
1.0010339
1.0017999
1.0019792
1.0022825
1.0022572
1.0027259
1.0018396
1.0029831
1.0030335
1.0033617
1.0034416
1.0036034
1.0036719
1.0037918
1.0037736
1.0039729
1.0040176
1.0041096
1.0041445
1.0042099
1.0042149
1.004302
1.0042093
1.0043742
1.0043435
1.004389
1.0043686
1.0043795
1.0043614
1.0043539
1.0043329
1.0043107
1.0042838
1.0042428
1.0042074
1.0041178
1.0041058
1.0040444
1.0039907
1.0039243
1.0038489
1.0037617
1.0036503
1.0034795
1.0032787
1.0033568
1.0032476
1.0031962
1.0030991
1.0030188
1.0028699
1.0027864
1.002455
1.0025637
1.0024212
1.002341
1.0022273
1.0021059
1.0019619
1.0018037
1.0015976
1.0013699
1.0010189
1.0005678
0.99983541
1.0004888
1.0002254
1.0001916
1.0000324
0.99989043
0.99958118
0.99939843
0.99855961
0.99892854
0.99871196
0.99854022
0.99824875
0.9979425
0.99728142
0.9967396
0.99441854
0.9967866
0.99615272
0.99625015
0.996002
0.99550847
0.99469876
0.99589237
0.99561517
0.99564793
0.99533716
0.99483115
0.99594137
0.99575137
0.99615281
0.99575668
0.99637643
0.99631744
0.99652522
0.99965459
0.9992997
0.99919131
0.99775097
0.99986827
0.99988823
1.0005553
0.99993457
1.0008461
1.0010484
1.0012489
1.0015957
1.0010384
1.0017935
1.0019748
1.0022795
1.002253
1.0027285
1.001848
1.0029691
1.0030278
1.0033554
1.0034378
1.0035997
1.003669
1.0037901
1.0037719
1.003969
1.0040152
1.0041073
1.0041427
1.0042086
1.0042134
1.0043016
1.0042096
1.0043718
1.0043431
1.0043884
1.0043687
1.0043795
1.0043618
1.0043542
1.0043334
1.0043113
1.0042845
1.0042435
1.0042085
1.0041198
1.0041061
1.0040451
1.0039912
1.0039247
1.0038492
1.0037619
1.0036502
1.0034843
1.0032849
1.0033574
1.0032479
1.0031956
1.0030983
1.0030172
1.0028684
1.0027836
1.0024597
1.0025625
1.0024194
1.0023385
1.002224
1.0021018
1.0019569
1.0017973
1.0015897
1.0013593
1.0010056
1.0005572
0.99985566
1.0004916
1.0002224
1.0001881
1.0000276
0.99988271
0.99957307
0.99938342
0.9985624
0.99893029
0.99870676
0.9985331
0.99823971
0.99792796
0.99726512
0.99671257
0.99445332
0.99680022
0.99614928
0.99624829
0.99599617
0.99550308
0.99471072
0.99589831
0.9956142
0.99564662
0.99533508
0.99483816
0.99594539
0.99575254
0.99615291
0.99575833
0.99637838
0.99631797
0.99652547
0.99965455
0.99930066
0.99919751
0.99776907
0.99986231
0.99988547
1.0005542
0.99994029
1.0008408
1.0010457
1.0012453
1.0015961
1.0010454
1.0017868
1.0019701
1.0022763
1.0022489
1.0027303
1.0018606
1.002955
1.0030218
1.0033486
1.0034337
1.0035958
1.0036658
1.0037883
1.0037705
1.0039649
1.0040126
1.0041049
1.0041408
1.0042071
1.0042118
1.0043011
1.0042104
1.0043691
1.0043426
1.0043876
1.0043687
1.0043794
1.004362
1.0043545
1.0043339
1.0043117
1.004285
1.0042441
1.0042096
1.0041221
1.0041064
1.0040457
1.0039915
1.0039251
1.0038495
1.0037622
1.0036502
1.0034904
1.0032926
1.0033582
1.0032486
1.0031951
1.0030976
1.0030156
1.0028671
1.0027815
1.0024664
1.002561
1.0024176
1.0023358
1.0022207
1.0020974
1.0019515
1.0017904
1.0015814
1.0013483
1.0009928
1.0005491
0.99988203
1.0004931
1.0002195
1.0001845
1.0000226
0.99987463
0.99956454
0.99936846
0.99856811
0.99893205
0.99870133
0.99852555
0.99823028
0.99791291
0.99724905
0.99668709
0.99450007
0.99681178
0.99614642
0.9962464
0.99599082
0.99549854
0.99472683
0.9959043
0.99561395
0.99564518
0.99533511
0.99484741
0.99594972
0.99575409
0.99615307
0.99576057
0.9963805
0.9963186
0.9965257
0.99965474
0.99930158
0.99920532
0.99779301
0.99985679
0.9998832
1.0005528
0.99994829
1.0008362
1.0010429
1.0012419
1.0015963
1.001055
1.0017813
1.0019656
1.0022729
1.0022447
1.0027314
1.0018775
1.0029412
1.0030155
1.0033415
1.0034294
1.0035916
1.0036625
1.0037862
1.0037695
1.0039607
1.0040098
1.0041022
1.0041387
1.0042055
1.00421
1.0043004
1.0042113
1.0043661
1.0043419
1.0043867
1.0043686
1.0043793
1.0043623
1.0043548
1.0043344
1.0043122
1.0042856
1.0042447
1.0042105
1.0041245
1.0041066
1.0040462
1.0039917
1.0039254
1.0038497
1.0037626
1.0036503
1.003497
1.0033018
1.0033591
1.0032495
1.0031949
1.003097
1.0030141
1.0028659
1.0027786
1.0024748
1.0025596
1.002416
1.002333
1.0022171
1.0020927
1.0019458
1.0017831
1.0015725
1.0013369
1.0009798
1.0005441
0.99991413
1.0004943
1.0002175
1.0001806
1.0000175
0.9998662
0.99955585
0.99935358
0.99857758
0.99893402
0.9986959
0.99851774
0.99822029
0.99789699
0.99723246
0.99666455
0.99455879
0.9968237
0.99614556
0.99624449
0.99598624
0.99549822
0.99474758
0.99591075
0.99561434
0.99564455
0.99533622
0.99485941
0.99595437
0.99575621
0.99615336
0.99576359
0.99638282
0.9963194
0.99652594
0.99965521
0.99930285
0.99921511
0.99782296
0.9998525
0.99988122
1.0005511
0.99995867
1.0008317
1.0010403
1.0012384
1.001596
1.0010672
1.0017757
1.0019609
1.0022694
1.0022407
1.0027318
1.0018986
1.0029274
1.0030089
1.0033338
1.0034247
1.0035871
1.0036589
1.0037839
1.0037686
1.0039563
1.0040068
1.0040993
1.0041363
1.0042037
1.004208
1.0042997
1.0042119
1.0043627
1.0043408
1.0043855
1.0043684
1.0043791
1.0043624
1.0043549
1.0043346
1.0043124
1.004286
1.004245
1.0042112
1.004127
1.0041066
1.0040463
1.0039916
1.0039254
1.0038498
1.0037628
1.0036505
1.0035036
1.0033118
1.00336
1.0032506
1.0031947
1.0030963
1.0030125
1.0028648
1.0027762
1.0024837
1.0025588
1.0024145
1.0023301
1.0022133
1.0020877
1.0019395
1.0017752
1.0015631
1.0013251
1.0009675
1.0005422
0.99995045
1.0004939
1.0002158
1.0001766
1.0000122
0.99985742
0.99954692
0.99933924
0.99859087
0.99893545
0.99869041
0.99850954
0.99820996
0.99788067
0.99721658
0.99664524
0.9946289
0.99683316
0.99614577
0.99624317
0.9959826
0.99549989
0.9947735
0.99591735
0.99561557
0.99564446
0.99533898
0.99487461
0.99595933
0.99575907
0.99615386
0.99576757
0.99638534
0.99632045
0.99652629
0.99965607
0.99930457
0.99922716
0.99785891
0.9998482
0.99987992
1.000549
0.99997144
1.0008281
1.0010376
1.0012352
1.0015955
1.0010819
1.0017713
1.0019564
1.0022657
1.0022366
1.002732
1.0019228
1.0029138
1.0030019
1.0033256
1.0034195
1.0035822
1.003655
1.0037813
1.0037679
1.0039516
1.0040035
1.0040961
1.0041337
1.0042015
1.0042057
1.0042986
1.0042125
1.0043588
1.0043393
1.004384
1.0043678
1.0043785
1.0043623
1.0043547
1.0043347
1.0043124
1.004286
1.004245
1.0042113
1.004129
1.0041062
1.0040462
1.0039911
1.003925
1.0038493
1.0037627
1.0036505
1.0035095
1.0033224
1.0033609
1.0032518
1.0031945
1.0030956
1.0030109
1.0028637
1.0027736
1.0024921
1.0025587
1.0024129
1.002327
1.0022092
1.0020822
1.0019328
1.0017667
1.0015529
1.0013127
1.0009548
1.0005417
0.99998787
1.0004969
1.0002143
1.0001729
1.0000069
0.99984843
0.99953797
0.99932516
0.99860756
0.99893718
0.99868484
0.99850119
0.99819914
0.99786369
0.99720054
0.99662773
0.99470924
0.99684375
0.99614734
0.99624276
0.99598007
0.99550421
0.99480506
0.99592432
0.99561794
0.99564508
0.99534368
0.99489329
0.99596461
0.99576279
0.99615467
0.99577266
0.99638806
0.99632182
0.99652673
0.99965734
0.99930683
0.99924148
0.99790053
0.99984535
0.99987919
1.0005467
0.99998643
1.0008247
1.0010352
1.0012318
1.0015945
1.0010988
1.0017666
1.0019517
1.0022619
1.0022325
1.0027329
1.0019479
1.0029002
1.0029943
1.0033168
1.0034139
1.0035769
1.0036507
1.0037785
1.003767
1.0039465
1.0039998
1.0040924
1.0041305
1.004199
1.0042029
1.0042971
1.0042125
1.0043541
1.0043372
1.0043818
1.0043668
1.0043776
1.0043618
1.0043542
1.0043343
1.0043119
1.0042855
1.0042444
1.0042108
1.0041305
1.0041052
1.0040455
1.00399
1.003924
1.0038484
1.003762
1.0036502
1.0035147
1.0033332
1.0033615
1.0032529
1.0031941
1.0030946
1.0030089
1.0028624
1.0027714
1.0025001
1.0025585
1.0024111
1.0023236
1.0022045
1.0020761
1.0019253
1.0017574
1.0015421
1.0012999
1.0009427
1.000543
1.0000249
1.0005018
1.0002127
1.0001692
1.0000013
0.99983914
0.99952884
0.99931211
0.99862755
0.99893775
0.99867919
0.99849243
0.99818793
0.99784635
0.99718551
0.99661544
0.99479911
0.9968515
0.99615011
0.99624318
0.99597927
0.99551157
0.99484231
0.99593151
0.99562153
0.99564651
0.99535089
0.99491565
0.99597017
0.99576747
0.99615581
0.99577904
0.99639097
0.99632354
0.99652733
0.99965861
0.99930974
0.99925806
0.99794843
0.99984231
0.99987915
1.0005441
1.0000035
1.0008221
1.0010328
1.0012288
1.0015932
1.001118
1.0017632
1.0019471
1.002258
1.002228
1.0027348
1.0019728
1.0028875
1.0029863
1.0033072
1.0034077
1.0035711
1.0036459
1.0037753
1.0037658
1.003941
1.0039956
1.0040882
1.0041269
1.004196
1.0041996
1.0042951
1.0042119
1.0043487
1.0043344
1.0043789
1.0043651
1.0043761
1.0043608
1.0043532
1.0043334
1.0043109
1.0042845
1.0042433
1.0042097
1.0041315
1.0041036
1.0040442
1.0039884
1.0039225
1.0038469
1.0037608
1.0036496
1.0035194
1.0033436
1.0033618
1.0032538
1.0031934
1.0030933
1.0030066
1.0028608
1.0027692
1.0025083
1.0025576
1.0024088
1.0023199
1.0021993
1.0020693
1.001917
1.0017472
1.0015302
1.0012862
1.0009299
1.0005462
1.0000613
1.0005075
1.0002112
1.0001657
0.9999955
0.99982963
0.99951971
0.9992993
0.99864943
0.99893928
0.99867301
0.99848356
0.99817616
0.99782845
0.99717075
0.99660286
0.99489498
0.99686117
0.99615381
0.99624481
0.99597955
0.99552189
0.99488493
0.99593918
0.99562641
0.99564905
0.99536083
0.99494188
0.99597609
0.99577318
0.99615732
0.9957869
0.99639405
0.99632567
0.99652811
0.99965967
0.99931331
0.99927684
0.99800346
0.99983558
0.99987949
1.0005413
1.0000226
1.0008195
1.0010307
1.0012254
1.0015918
1.0011388
1.001759
1.0019422
1.0022539
1.0022234
1.0027366
1.0019978
1.0028747
1.0029776
1.0032967
1.0034007
1.0035646
1.0036405
1.0037715
1.0037643
1.0039349
1.0039908
1.0040834
1.0041227
1.0041924
1.0041957
1.0042924
1.0042108
1.0043425
1.0043308
1.0043754
1.0043629
1.004374
1.0043592
1.0043516
1.004332
1.0043094
1.004283
1.0042417
1.004208
1.0041319
1.0041016
1.0040424
1.0039863
1.0039204
1.0038449
1.0037591
1.0036487
1.0035238
1.0033538
1.0033617
1.0032546
1.0031925
1.0030916
1.003004
1.0028589
1.0027666
1.0025165
1.0025561
1.0024061
1.0023156
1.0021933
1.0020617
1.0019078
1.001736
1.0015174
1.0012719
1.0009176
1.0005513
1.0000966
1.0005134
1.0002096
1.0001621
0.99998911
0.99981965
0.99951019
0.99928759
0.99867083
0.99894211
0.99866666
0.99847418
0.99816377
0.9978101
0.99715673
0.99659738
0.99499253
0.99687651
0.99615805
0.99624762
0.99598113
0.99553421
0.99493298
0.99594733
0.99563264
0.9956528
0.99537333
0.99497197
0.99598235
0.99578001
0.99615925
0.9957964
0.9963973
0.99632823
0.99652909
0.99966081
0.99931749
0.99929816
0.9980642
0.99983145
0.99988042
1.0005391
1.0000421
1.0008173
1.0010285
1.0012223
1.001591
1.0011598
1.0017559
1.0019371
1.0022496
1.0022183
1.0027381
1.0020231
1.0028623
1.0029683
1.0032852
1.0033929
1.0035573
1.0036344
1.003767
1.0037623
1.0039283
1.0039855
1.004078
1.0041179
1.0041883
1.0041913
1.0042889
1.0042094
1.0043358
1.0043264
1.004371
1.00436
1.0043713
1.0043572
1.0043496
1.0043302
1.0043074
1.004281
1.0042396
1.0042058
1.0041318
1.0040991
1.0040401
1.0039838
1.003918
1.0038424
1.0037571
1.0036476
1.0035277
1.0033638
1.0033615
1.0032553
1.0031913
1.0030896
1.0030009
1.0028568
1.0027639
1.0025244
1.0025537
1.002403
1.0023107
1.0021866
1.0020533
1.0018976
1.0017237
1.0015036
1.0012567
1.0009049
1.0005575
1.000131
1.0005191
1.0002078
1.0001584
0.99998226
0.99980923
0.9995005
0.99927595
0.9986912
0.99894621
0.99865967
0.99846444
0.99815063
0.99779109
0.9971436
0.99658948
0.9950932
0.99689111
0.99616395
0.99625189
0.9959839
0.99554721
0.99498734
0.99595619
0.99564025
0.99565785
0.99538703
0.99500683
0.9959891
0.99578804
0.99616165
0.99580769
0.99640071
0.99633128
0.99653027
0.99966264
0.99932198
0.99932229
0.99812886
0.99982341
0.99988199
1.000539
1.0000609
1.0008148
1.0010265
1.0012187
1.0015908
1.0011807
1.0017516
1.0019317
1.0022448
1.0022129
1.0027389
1.0020493
1.0028484
1.0029584
1.0032727
1.0033842
1.0035492
1.0036276
1.0037616
1.00376
1.0039212
1.0039795
1.004072
1.0041125
1.0041835
1.0041865
1.0042846
1.0042077
1.0043285
1.0043214
1.004366
1.0043565
1.0043681
1.0043546
1.0043472
1.0043279
1.0043051
1.0042787
1.0042373
1.0042032
1.0041315
1.0040963
1.0040376
1.003981
1.0039153
1.0038397
1.003755
1.0036465
1.0035314
1.0033735
1.0033615
1.0032559
1.0031899
1.0030875
1.0029977
1.0028546
1.002761
1.002532
1.0025506
1.0023996
1.0023053
1.0021792
1.002044
1.0018865
1.0017104
1.0014889
1.0012409
1.0008934
1.0005643
1.0001646
1.0005235
1.0002064
1.0001543
0.99997462
0.9997981
0.9994901
0.99926607
0.99871051
0.99895051
0.99865205
0.998454
0.99813654
0.99777143
0.99713052
0.9965842
0.99519775
0.99690514
0.9961723
0.99625764
0.99598782
0.99556087
0.99504795
0.99596589
0.99564924
0.99566428
0.99540171
0.99504742
0.99599648
0.99579734
0.99616459
0.99582088
0.99640429
0.99633485
0.99653167
0.99966565
0.99932696
0.9993488
0.99819665
0.99981839
0.99988446
1.0005392
1.0000805
1.0008111
1.0010246
1.0012154
1.001591
1.0012015
1.0017487
1.0019261
1.0022398
1.0022073
1.0027388
1.0020764
1.0028338
1.0029478
1.0032591
1.0033745
1.0035402
1.00362
1.0037555
1.0037573
1.0039136
1.0039729
1.0040654
1.0041065
1.0041782
1.0041812
1.0042796
1.0042058
1.0043209
1.0043158
1.0043603
1.0043523
1.0043643
1.0043516
1.0043443
1.0043254
1.0043025
1.004276
1.0042347
1.0042003
1.0041309
1.0040934
1.004035
1.003978
1.0039123
1.0038369
1.0037528
1.0036455
1.0035349
1.003383
1.0033616
1.0032566
1.0031884
1.0030853
1.0029943
1.0028525
1.0027581
1.0025394
1.0025469
1.0023957
1.0022993
1.0021711
1.002034
1.0018745
1.0016962
1.0014731
1.0012246
1.0008825
1.0005714
1.0001978
1.0005262
1.0002058
1.00015
0.99996648
0.99978648
0.9994798
0.99925765
0.99872945
0.99895365
0.99864389
0.99844293
0.9981216
0.9977511
0.99711877
0.99658277
0.99530417
0.9969204
0.99618254
0.99626456
0.9959929
0.99557731
0.99511286
0.99597606
0.9956596
0.99567212
0.99541961
0.995092
0.99600448
0.99580795
0.99616813
0.99583605
0.99640806
0.99633896
0.9965333
0.99966938
0.99933319
0.99937724
0.99826708
0.99981155
0.99988805
1.0005389
1.0001015
1.0008081
1.0010227
1.0012121
1.0015913
1.0012221
1.001745
1.0019204
1.0022343
1.0022023
1.0027378
1.0021043
1.0028187
1.0029368
1.0032446
1.003364
1.0035304
1.0036118
1.0037485
1.0037542
1.0039056
1.0039658
1.0040582
1.0041
1.0041723
1.0041756
1.0042738
1.0042037
1.0043131
1.0043097
1.0043541
1.0043477
1.00436
1.0043482
1.0043411
1.0043225
1.0042996
1.0042731
1.004232
1.0041972
1.00413
1.0040904
1.0040322
1.003975
1.0039094
1.003834
1.0037506
1.0036448
1.0035383
1.0033922
1.003362
1.0032575
1.003187
1.0030831
1.0029909
1.0028504
1.0027552
1.0025467
1.0025424
1.0023917
1.0022928
1.0021624
1.0020232
1.0018617
1.0016812
1.001457
1.0012083
1.0008728
1.0005793
1.0002304
1.000527
1.0002057
1.0001451
0.9999576
0.99977421
0.99946933
0.99925014
0.998749
0.99895476
0.99863482
0.99843104
0.99810561
0.99773031
0.9971071
0.99658389
0.99541197
0.99693395
0.99619436
0.99627259
0.99599927
0.99559771
0.99517934
0.99598745
0.99567138
0.99568144
0.99544068
0.99513921
0.99601322
0.99581994
0.99617229
0.99585324
0.99641207
0.99634366
0.99653518
0.99967372
0.9993409
0.99940725
0.99834011
0.99980722
0.9998927
1.0005382
1.0001239
1.0008052
1.001021
1.0012102
1.0015911
1.0012426
1.0017422
1.0019147
1.0022285
1.002197
1.0027356
1.0021327
1.0028038
1.0029254
1.0032292
1.0033525
1.0035197
1.003603
1.0037407
1.0037506
1.0038971
1.0039583
1.0040504
1.004093
1.0041659
1.0041698
1.0042673
1.0042016
1.0043051
1.0043033
1.0043474
1.0043427
1.0043553
1.0043445
1.0043376
1.0043193
1.0042965
1.0042701
1.0042293
1.004194
1.0041291
1.0040875
1.0040296
1.0039719
1.0039065
1.0038313
1.0037486
1.0036444
1.0035415
1.0034013
1.0033627
1.0032587
1.0031857
1.003081
1.0029875
1.0028486
1.0027523
1.0025537
1.0025373
1.0023873
1.0022859
1.0021532
1.0020118
1.0018482
1.0016655
1.0014403
1.001192
1.0008643
1.0005881
1.0002626
1.0005257
1.0002061
1.0001401
0.99994847
0.99976169
0.99945916
0.99924397
0.99876876
0.99895393
0.99862544
0.99841849
0.99808901
0.99770934
0.99709759
0.99658865
0.9955229
0.99694874
0.99620779
0.99628182
0.9960071
0.99562166
0.99524594
0.99600083
0.99568474
0.9956924
0.99546418
0.99518861
0.99602296
0.99583333
0.99617728
0.99587242
0.99641636
0.99634898
0.99653733
0.99967879
0.99935023
0.99943836
0.99841584
0.99980257
0.99989806
1.0005367
1.0001476
1.0008029
1.0010195
1.0012082
1.0015901
1.0012634
1.0017399
1.0019093
1.0022223
1.0021925
1.0027316
1.0021616
1.0027893
1.0029139
1.0032131
1.0033403
1.0035082
1.0035934
1.003732
1.0037467
1.0038883
1.0039504
1.0040422
1.0040857
1.004159
1.0041638
1.0042601
1.0041994
1.004297
1.0042966
1.0043402
1.0043372
1.0043502
1.0043404
1.0043338
1.004316
1.0042934
1.0042669
1.0042265
1.0041908
1.0041282
1.0040846
1.0040271
1.0039691
1.0039038
1.0038287
1.0037468
1.0036444
1.0035448
1.0034102
1.0033637
1.0032602
1.0031846
1.0030793
1.0029843
1.0028472
1.0027495
1.0025601
1.002532
1.0023829
1.0022785
1.0021435
1.0019999
1.0018342
1.0016494
1.0014235
1.0011762
1.0008575
1.0005979
1.0002942
1.0005227
1.0002067
1.0001343
0.99993872
0.9997489
0.99944933
0.99923848
0.99878862
0.99895139
0.99861508
0.99840515
0.99807161
0.99768826
0.99708887
0.99659734
0.99563639
0.99696225
0.99622261
0.99629225
0.99601656
0.99564935
0.99531296
0.99601571
0.99569977
0.99570515
0.99549097
0.99523952
0.9960337
0.99584812
0.99618316
0.9958935
0.99642105
0.99635495
0.99653978
0.99968466
0.9993614
0.99947014
0.99849449
0.99980092
0.99990408
1.0005347
1.0001726
1.000801
1.0010185
1.0012066
1.0015878
1.0012847
1.0017382
1.0019041
1.002216
1.002189
1.0027251
1.0021912
1.0027754
1.0029024
1.0031962
1.0033273
1.0034959
1.0035832
1.0037224
1.0037422
1.003879
1.0039421
1.0040335
1.0040779
1.0041517
1.0041576
1.0042524
1.0041972
1.004289
1.0042899
1.0043328
1.0043315
1.0043448
1.0043361
1.0043298
1.0043126
1.0042901
1.0042638
1.0042239
1.0041876
1.0041273
1.0040821
1.0040249
1.0039665
1.0039013
1.0038265
1.0037453
1.0036449
1.0035481
1.0034189
1.0033652
1.0032621
1.0031838
1.0030779
1.0029815
1.002846
1.0027469
1.0025661
1.0025265
1.0023784
1.0022708
1.0021335
1.0019876
1.0018198
1.0016329
1.0014068
1.001161
1.0008527
1.0006085
1.0003249
1.0005187
1.0002072
1.0001284
0.99992896
0.99973617
0.99944049
0.9992337
0.99880842
0.9989468
0.99860498
0.99839138
0.99805391
0.99766778
0.99708366
0.99661025
0.99575088
0.99697557
0.99623907
0.99630401
0.99602807
0.99568092
0.99538041
0.9960317
0.99571668
0.99571983
0.9955207
0.99529205
0.99604551
0.99586439
0.99619007
0.99591631
0.99642619
0.99636159
0.99654258
0.99969137
0.99937459
0.99950234
0.9985761
0.99980064
0.9999112
1.000532
1.0001988
1.0007998
1.0010177
1.0012057
1.0015843
1.0013067
1.0017371
1.0018995
1.0022092
1.0021867
1.0027162
1.0022212
1.0027623
1.0028911
1.0031787
1.0033136
1.0034827
1.0035725
1.003712
1.0037373
1.0038695
1.0039334
1.0040244
1.0040698
1.0041438
1.0041513
1.0042441
1.0041949
1.004281
1.0042831
1.0043252
1.0043256
1.0043391
1.0043316
1.0043257
1.004309
1.0042869
1.0042606
1.0042213
1.0041846
1.0041265
1.0040798
1.004023
1.0039643
1.0038992
1.0038247
1.0037442
1.0036458
1.0035516
1.0034276
1.0033672
1.0032645
1.0031833
1.0030769
1.0029789
1.0028453
1.0027445
1.0025714
1.0025209
1.0023738
1.0022628
1.0021232
1.0019749
1.0018051
1.0016164
1.0013904
1.0011469
1.0008495
1.00062
1.0003553
1.0005145
1.0002071
1.0001217
0.99991892
0.99972343
0.99943244
0.99922916
0.99882876
0.99894084
0.99859365
0.99837678
0.99803571
0.9976481
0.99708153
0.99662764
0.99586629
0.99698814
0.99625729
0.99631721
0.99604219
0.9957165
0.99544817
0.99604866
0.99573567
0.99573659
0.99555307
0.99534616
0.99605839
0.99588227
0.99619805
0.99594068
0.99643191
0.99636895
0.99654574
0.99969901
0.99938995
0.9995348
0.99866061
0.99980188
0.99991977
1.0005296
1.0002263
1.0007993
1.0010174
1.0012053
1.0015796
1.0013295
1.0017369
1.0018955
1.0022023
1.0021853
1.0027051
1.0022514
1.0027502
1.0028801
1.0031608
1.0032992
1.0034688
1.0035611
1.0037008
1.0037318
1.0038596
1.0039244
1.0040148
1.0040614
1.0041355
1.004145
1.0042353
1.0041925
1.0042731
1.0042764
1.0043175
1.0043195
1.0043332
1.004327
1.0043214
1.0043054
1.0042836
1.0042575
1.004219
1.0041817
1.0041259
1.0040779
1.0040215
1.0039625
1.0038976
1.0038235
1.0037437
1.0036473
1.0035553
1.0034361
1.0033697
1.0032673
1.0031833
1.0030765
1.0029768
1.0028449
1.0027425
1.0025762
1.0025154
1.0023692
1.0022546
1.0021127
1.0019621
1.0017904
1.0015999
1.0013746
1.0011339
1.0008481
1.0006323
1.0003853
1.000508
1.0002069
1.000115
0.99990924
0.99971117
0.99942562
0.99922589
0.99884967
0.99893078
0.99858281
0.99836236
0.99801811
0.99763003
0.99708293
0.9966496
0.99598204
0.99699881
0.99627834
0.99633212
0.9960592
0.99575611
0.99551593
0.99606668
0.99575693
0.99575561
0.99558776
0.995402
0.99607234
0.99590184
0.99620712
0.99596649
0.99643822
0.99637706
0.9965493
0.99970758
0.99940759
0.99956755
0.9987478
0.99980472
0.99993002
1.0005266
1.0002549
1.0007998
1.0010177
1.0012054
1.0015738
1.0013529
1.0017373
1.0018923
1.0021951
1.0021852
1.0026918
1.0022814
1.0027394
1.0028696
1.0031426
1.0032843
1.0034541
1.0035492
1.0036887
1.0037258
1.0038494
1.0039152
1.0040049
1.0040527
1.0041268
1.0041386
1.004226
1.00419
1.0042654
1.0042699
1.0043097
1.0043133
1.0043272
1.0043222
1.0043171
1.0043018
1.0042805
1.0042546
1.0042169
1.0041792
1.0041256
1.0040764
1.0040205
1.0039612
1.0038965
1.0038228
1.0037438
1.0036493
1.0035592
1.0034446
1.0033728
1.0032707
1.0031839
1.0030765
1.0029753
1.002845
1.0027408
1.0025805
1.0025099
1.0023647
1.0022462
1.0021022
1.0019492
1.0017757
1.0015839
1.0013597
1.0011226
1.0008486
1.0006454
1.0004142
1.0004984
1.0002074
1.0001078
0.99989949
0.99969925
0.9994199
0.99922343
0.99887022
0.99891795
0.99857301
0.99834703
0.99800043
0.99761354
0.9970878
0.99667624
0.99609761
0.99700645
0.99630355
0.99634894
0.99607948
0.99579917
0.99558388
0.99608584
0.99578088
0.99577708
0.99562478
0.99545959
0.99608739
0.99592314
0.99621735
0.99599368
0.99644514
0.99638597
0.99655336
0.99971725
0.99942759
0.99960073
0.99883736
0.99980959
0.99994219
1.0005242
1.0002845
1.0008011
1.0010187
1.0012058
1.0015671
1.001377
1.0017384
1.00189
1.0021878
1.0021864
1.0026762
1.0023108
1.0027298
1.0028597
1.0031242
1.0032689
1.0034386
1.0035367
1.0036758
1.0037191
1.0038389
1.0039056
1.0039946
1.0040437
1.0041177
1.0041321
1.0042164
1.0041873
1.0042578
1.0042635
1.004302
1.0043071
1.0043211
1.0043173
1.0043128
1.0042982
1.0042774
1.0042518
1.004215
1.0041769
1.0041256
1.0040755
1.00402
1.0039606
1.003896
1.0038227
1.0037444
1.003652
1.0035636
1.0034531
1.0033764
1.0032745
1.003185
1.0030772
1.0029743
1.0028455
1.0027395
1.0025844
1.0025046
1.0023602
1.0022379
1.0020917
1.0019364
1.0017612
1.0015683
1.0013459
1.0011128
1.0008511
1.0006588
1.0004422
1.0004882
1.0002088
1.0001006
0.99989045
0.99968825
0.9994159
0.99922158
0.9988899
0.99890497
0.99856295
0.99833229
0.99798443
0.99760051
0.99709585
0.99670766
0.99621222
0.99701083
0.99633338
0.99636785
0.99610331
0.99584526
0.99565241
0.99610606
0.99580796
0.99580119
0.99566418
0.9955188
0.99610362
0.99594624
0.99622878
0.99602226
0.99645263
0.99639573
0.99655795
0.99972822
0.99945003
0.99963407
0.99892893
0.99981674
0.99995638
1.0005214
1.0003152
1.0008034
1.0010204
1.001207
1.0015594
1.0014017
1.0017403
1.0018887
1.0021804
1.0021889
1.0026581
1.0023396
1.0027219
1.0028507
1.0031059
1.0032531
1.0034225
1.0035238
1.0036621
1.0037117
1.0038281
1.0038958
1.003984
1.0040346
1.0041082
1.0041255
1.0042065
1.0041844
1.0042504
1.0042573
1.0042944
1.004301
1.004315
1.0043125
1.0043084
1.0042947
1.0042745
1.0042491
1.0042134
1.0041751
1.0041258
1.004075
1.0040201
1.0039605
1.0038962
1.0038233
1.0037458
1.0036552
1.0035682
1.0034614
1.0033807
1.0032789
1.0031867
1.0030784
1.002974
1.0028464
1.0027386
1.0025878
1.0024996
1.0023558
1.0022296
1.0020814
1.0019238
1.0017473
1.0015536
1.0013335
1.001105
1.0008554
1.0006724
1.0004686
1.0004759
1.0002107
1.0000931
0.99988171
0.99967795
0.99941309
0.99922021
0.99890784
0.99888992
0.99855389
0.99831727
0.99796896
0.99758903
0.99710782
0.9967451
0.99632378
0.99701406
0.99636807
0.99638906
0.99613093
0.99589451
0.99572095
0.99612752
0.9958385
0.99582811
0.99570599
0.99557953
0.99612112
0.99597125
0.99624151
0.99605222
0.99646076
0.99640638
0.99656308
0.99974055
0.99947514
0.99966722
0.99902216
0.99982651
0.99997268
1.0005195
1.0003468
1.0008069
1.0010229
1.001209
1.0015511
1.0014268
1.0017428
1.0018884
1.002173
1.0021924
1.0026379
1.0023677
1.002715
1.0028425
1.0030879
1.0032371
1.0034058
1.0035103
1.0036477
1.0037035
1.0038169
1.0038858
1.0039731
1.0040252
1.0040982
1.0041188
1.0041962
1.0041811
1.0042431
1.0042514
1.004287
1.0042949
1.004309
1.0043077
1.0043041
1.0042912
1.0042717
1.0042467
1.0042121
1.0041736
1.0041263
1.0040751
1.0040207
1.0039611
1.0038969
1.0038245
1.0037477
1.0036589
1.0035732
1.0034697
1.0033854
1.0032837
1.003189
1.0030803
1.0029742
1.0028479
1.002738
1.0025909
1.0024949
1.0023515
1.0022215
1.0020714
1.0019117
1.0017339
1.00154
1.0013226
1.0010996
1.0008613