/*--------------------------------*- C++ -*----------------------------------*\
| =========                 |                                                 |
| \\      /  F ield         | OpenFOAM: The Open Source CFD Toolbox           |
|  \\    /   O peration     | Version:  v2006                                 |
|   \\  /    A nd           | Website:  www.openfoam.com                      |
|    \\/     M anipulation  |                                                 |
\*---------------------------------------------------------------------------*/
FoamFile
{
    version     2.0;
    format      ascii;
    class       volScalarField;
    location    "4000";
    object      rho;
}
// * * * * * * * * * * * * * * * * * * * * * * * * * * * * * * * * * * * * * //

dimensions      [1 -3 0 0 0 0 0];


internalField   nonuniform List<scalar> 
103740
(
0.99993005
0.99966147
0.99963518
0.99864512
1.0002732
1.000219
1.000732
1.0002958
1.0010022
1.0011177
1.0012866
1.0015325
1.0011874
1.0017538
1.0018465
1.0020747
1.0020646
1.0023841
1.0018881
1.0026322
1.0025935
1.0028125
1.0028343
1.0029401
1.0029715
1.0030438
1.0030474
1.0031442
1.0031542
1.0031978
1.0032071
1.003232
1.003234
1.0032484
1.0032373
1.003238
1.0032094
1.0032014
1.0031712
1.0031512
1.0031194
1.0030877
1.003052
1.0030067
1.0029657
1.0028958
1.0028506
1.0026952
1.00271
1.002623
1.0025639
1.0024834
1.0023933
1.0022834
1.0021476
1.0019163
1.0016328
1.0018082
1.0016769
1.0016354
1.0015326
1.0014591
1.0012851
1.0012335
1.0007813
1.0009803
1.0008333
1.0007616
1.0006526
1.0005308
1.0003844
1.0002212
1.0000084
0.99977543
0.99940637
0.99895547
0.99792144
0.9988104
0.99858092
0.99857656
0.99844573
0.99834105
0.99801961
0.99793463
0.99691193
0.99737745
0.99721657
0.99707223
0.99680395
0.99655117
0.99585397
0.99553245
0.99255826
0.99534374
0.99477019
0.99491412
0.99473107
0.99431316
0.99329435
0.99469402
0.99445025
0.99454426
0.99431143
0.99367158
0.99495034
0.9947423
0.99526895
0.99480886
0.99552796
0.99546903
0.99573644
0.99992967
0.99966173
0.99963621
0.99864554
1.0002674
1.0002167
1.0007316
1.0002946
1.0009975
1.0011157
1.0012838
1.001533
1.0011859
1.0017482
1.0018433
1.0020725
1.0020614
1.0023858
1.0018853
1.0026228
1.0025904
1.0028088
1.0028322
1.0029379
1.0029699
1.0030426
1.0030459
1.0031423
1.0031531
1.0031968
1.0032064
1.0032314
1.0032336
1.0032482
1.0032373
1.0032385
1.0032101
1.0032022
1.0031722
1.0031521
1.0031205
1.0030888
1.0030532
1.0030079
1.002967
1.0028971
1.0028525
1.0026973
1.0027108
1.0026242
1.0025648
1.0024842
1.0023936
1.0022833
1.0021469
1.0019176
1.0016353
1.001808
1.0016769
1.001635
1.0015318
1.0014575
1.0012832
1.0012291
1.0007819
1.0009806
1.0008312
1.0007595
1.0006496
1.0005271
1.0003797
1.0002151
1.0000008
0.99976465
0.99939114
0.99893196
0.99792359
0.99881956
0.99857765
0.9985744
0.99844186
0.99833414
0.9980126
0.99791742
0.99690455
0.99738189
0.99721224
0.99706628
0.99679631
0.9965378
0.99583909
0.99549462
0.9925609
0.99536461
0.9947661
0.9949135
0.99472526
0.99430258
0.9932989
0.99470137
0.99444912
0.99454315
0.9943074
0.99367503
0.99495479
0.99474357
0.99526927
0.99480995
0.99553003
0.99546969
0.99573687
0.99992971
0.9996617
0.99963543
0.99864871
1.0002657
1.0002158
1.0007315
1.0002952
1.0009952
1.0011147
1.0012822
1.0015333
1.0011862
1.0017448
1.0018412
1.0020711
1.0020592
1.002387
1.001885
1.002616
1.0025881
1.002806
1.0028306
1.0029363
1.0029686
1.0030417
1.0030447
1.0031408
1.0031523
1.003196
1.0032059
1.003231
1.0032332
1.003248
1.0032373
1.0032387
1.0032106
1.0032026
1.0031729
1.0031528
1.0031213
1.0030896
1.0030541
1.0030088
1.002968
1.002898
1.0028544
1.0026997
1.0027115
1.0026256
1.0025659
1.0024853
1.002395
1.0022849
1.0021492
1.0019235
1.0016407
1.0018079
1.0016779
1.0016356
1.0015324
1.0014579
1.0012835
1.001229
1.0007857
1.0009813
1.0008308
1.0007591
1.0006487
1.0005257
1.0003778
1.0002124
0.99999723
0.99975941
0.99938413
0.99892409
0.99793259
0.99882439
0.99857562
0.99857358
0.99843984
0.99833028
0.99800886
0.99790802
0.99690432
0.99738558
0.99720976
0.99706315
0.99679226
0.99653048
0.99583229
0.99547957
0.99257247
0.9953744
0.99476361
0.99491372
0.99472271
0.99429942
0.99330448
0.99470497
0.99444855
0.99454308
0.99430681
0.99367787
0.99495724
0.99474426
0.99526946
0.99481077
0.99553116
0.99546995
0.9957371
0.99993028
0.99966155
0.99963296
0.99865723
1.0002692
1.0002165
1.000732
1.000298
1.0009954
1.0011149
1.0012816
1.0015339
1.0011884
1.0017436
1.00184
1.0020703
1.0020576
1.002388
1.0018874
1.0026103
1.0025861
1.0028035
1.0028292
1.0029348
1.0029674
1.0030408
1.0030437
1.0031393
1.0031514
1.0031952
1.0032053
1.0032305
1.0032329
1.0032478
1.0032372
1.0032392
1.0032113
1.0032034
1.0031738
1.0031538
1.0031225
1.0030908
1.0030555
1.0030103
1.00297
1.0029
1.0028577
1.0027037
1.0027131
1.0026282
1.0025685
1.0024884
1.0023984
1.0022891
1.0021553
1.0019359
1.001652
1.0018089
1.0016806
1.0016381
1.0015351
1.0014609
1.0012869
1.0012338
1.0007951
1.0009836
1.0008329
1.000761
1.0006502
1.000527
1.0003789
1.0002133
0.99999787
0.99975947
0.99938507
0.99892986
0.99795662
0.99882852
0.9985754
0.9985743
0.99843974
0.99832908
0.9980085
0.99790499
0.99691276
0.99739055
0.99720915
0.9970627
0.99679174
0.99652844
0.99583309
0.99548502
0.99260449
0.99537748
0.99476222
0.99491517
0.99472324
0.99430363
0.99331434
0.99470581
0.99444829
0.99454421
0.99430953
0.99368149
0.99495761
0.99474511
0.9952699
0.99481155
0.99553141
0.99547021
0.99573743
0.9999315
0.99966089
0.99963022
0.99867399
1.0002786
1.0002192
1.0007339
1.0003043
1.0009987
1.0011169
1.0012824
1.0015349
1.0011935
1.0017446
1.0018403
1.0020705
1.0020568
1.0023892
1.0018926
1.0026065
1.0025849
1.0028014
1.0028281
1.0029335
1.0029664
1.0030401
1.0030428
1.003138
1.0031507
1.0031944
1.0032048
1.00323
1.0032325
1.0032475
1.0032372
1.0032395
1.0032119
1.003204
1.0031748
1.0031548
1.0031237
1.0030922
1.0030571
1.0030122
1.0029723
1.0029028
1.0028624
1.0027097
1.0027159
1.0026322
1.0025726
1.0024933
1.0024043
1.0022966
1.0021654
1.0019558
1.001671
1.0018141
1.0016858
1.0016431
1.0015407
1.0014674
1.0012947
1.0012441
1.0008131
1.0009903
1.000838
1.0007661
1.0006553
1.0005322
1.0003844
1.000219
1.0000041
0.99976622
0.99939583
0.99895021
0.99800148
0.99883774
0.99857618
0.99857727
0.99844255
0.99833157
0.99801276
0.99790953
0.99693336
0.99740071
0.99721149
0.99706608
0.99679617
0.99653327
0.99584421
0.99550823
0.99266791
0.99537848
0.99476067
0.99491824
0.99472755
0.99431629
0.99333353
0.99470399
0.99444759
0.99454643
0.99431652
0.99368829
0.99495522
0.99474502
0.99526997
0.99481224
0.99553027
0.99546983
0.99573741
0.99993317
0.99965955
0.99963019
0.99870091
1.0002941
1.0002252
1.0007384
1.0003157
1.0010059
1.0011213
1.0012851
1.0015375
1.001203
1.0017493
1.0018427
1.0020723
1.002057
1.0023914
1.001902
1.0026047
1.0025846
1.0028
1.0028275
1.0029326
1.0029657
1.0030396
1.0030425
1.0031368
1.00315
1.0031936
1.0032042
1.0032295
1.0032322
1.0032473
1.0032371
1.0032401
1.0032127
1.003205
1.0031759
1.003156
1.0031253
1.003094
1.0030595
1.0030149
1.0029758
1.0029068
1.0028685
1.0027179
1.0027203
1.002638
1.0025788
1.0025007
1.002413
1.0023075
1.0021791
1.0019823
1.001698
1.0018263
1.0016955
1.0016518
1.0015505
1.001478
1.0013077
1.0012597
1.0008402
1.0010042
1.0008491
1.000776
1.0006652
1.0005425
1.0003953
1.0002306
1.000017
0.99978098
0.99941602
0.99898681
0.99807028
0.99886141
0.99858312
0.99858397
0.9984498
0.99833876
0.99802342
0.99792188
0.99696742
0.99742138
0.99722013
0.99707491
0.99680709
0.996546
0.99586532
0.99555011
0.99276681
0.99539695
0.99475889
0.99492326
0.99473639
0.99433865
0.99336599
0.99470454
0.99444701
0.99454986
0.99432787
0.99369968
0.9949507
0.994743
0.99526931
0.99481279
0.99552761
0.99546832
0.99573687
0.9999351
0.99965761
0.99963686
0.99873903
1.0003152
1.0002352
1.000747
1.0003339
1.0010172
1.0011288
1.0012902
1.0015432
1.0012184
1.001757
1.0018474
1.0020759
1.0020588
1.0023954
1.0019169
1.0026052
1.0025855
1.0027994
1.0028276
1.0029322
1.0029654
1.0030396
1.0030425
1.0031358
1.0031494
1.0031929
1.0032037
1.003229
1.0032318
1.003247
1.003237
1.0032404
1.0032134
1.0032057
1.0031772
1.0031575
1.0031272
1.0030962
1.0030622
1.0030181
1.0029799
1.0029119
1.0028756
1.0027282
1.0027272
1.0026459
1.0025871
1.0025104
1.0024243
1.0023214
1.0021954
1.0020128
1.0017317
1.0018459
1.0017118
1.001666
1.0015652
1.0014936
1.0013262
1.0012806
1.000876
1.0010262
1.0008674
1.0007921
1.0006811
1.0005585
1.0004123
1.0002487
1.0000371
0.9998033
0.99944526
0.99903276
0.99816161
0.99890336
0.99860204
0.99859803
0.99846336
0.99835216
0.9980411
0.99794176
0.99701527
0.99745616
0.99723903
0.99709167
0.99682605
0.99656742
0.99589745
0.9956047
0.9928992
0.9954413
0.99476379
0.99493221
0.99475044
0.99436884
0.99341377
0.99471441
0.99444798
0.99455395
0.99434347
0.99371812
0.99494668
0.99473874
0.99526705
0.99481314
0.99552384
0.99546533
0.99573533
0.99993739
0.99965668
0.9996541
0.99878811
1.0003401
1.0002507
1.0007616
1.0003593
1.0010325
1.0011397
1.0012987
1.0015537
1.0012399
1.0017684
1.001855
1.0020817
1.0020625
1.0024026
1.0019368
1.0026073
1.0025877
1.0027997
1.0028284
1.0029325
1.0029656
1.0030399
1.003043
1.0031351
1.003149
1.0031923
1.0032032
1.0032285
1.0032313
1.0032467
1.0032367
1.003241
1.0032143
1.0032068
1.0031786
1.0031591
1.0031293
1.0030988
1.0030654
1.0030219
1.0029847
1.0029176
1.0028832
1.0027403
1.0027357
1.0026557
1.0025973
1.0025219
1.0024374
1.0023372
1.0022126
1.0020436
1.0017682
1.0018706
1.0017348
1.0016862
1.0015853
1.0015138
1.0013496
1.0013042
1.0009184
1.0010549
1.0008941
1.0008156
1.0007037
1.0005809
1.0004354
1.0002729
1.0000632
0.99983217
0.99948006
0.99908669
0.99827051
0.99896444
0.99864115
0.99862463
0.99848689
0.99837356
0.99806742
0.9979687
0.99707723
0.997506
0.99727243
0.99711961
0.99685462
0.99659742
0.99593836
0.99566521
0.99305827
0.99552215
0.9947896
0.99495074
0.99477473
0.99440985
0.99347747
0.99474096
0.99445467
0.99456221
0.99436177
0.99374479
0.99494708
0.9947332
0.99526287
0.99481331
0.99551976
0.99546099
0.99573259
0.99994091
0.99966081
0.99968474
0.9988469
1.0003688
1.0002722
1.0007827
1.0003913
1.0010514
1.0011546
1.0013111
1.0015695
1.0012669
1.0017819
1.0018651
1.0020901
1.0020692
1.0024127
1.0019615
1.0026107
1.0025911
1.0028007
1.0028301
1.0029332
1.0029663
1.0030407
1.0030438
1.0031344
1.0031487
1.0031917
1.0032027
1.0032279
1.0032307
1.0032462
1.0032363
1.0032411
1.003215
1.0032076
1.0031801
1.0031609
1.0031317
1.0031015
1.0030688
1.003026
1.0029897
1.0029236
1.0028903
1.002753
1.0027449
1.0026663
1.0026083
1.002534
1.0024507
1.0023526
1.0022285
1.0020704
1.0018042
1.0018967
1.0017619
1.001711
1.0016097
1.0015376
1.001376
1.0013285
1.0009629
1.0010879
1.0009261
1.0008454
1.0007324
1.0006088
1.0004638
1.000302
1.0000941
0.99986514
0.99951841
0.99914224
0.99838815
0.99903419
0.99869835
0.99866756
0.9985235
0.99840542
0.99810311
0.99800318
0.997151
0.99756778
0.99732067
0.99716063
0.99689445
0.99663663
0.99598918
0.99572916
0.99323607
0.99563073
0.99484596
0.99498991
0.99481417
0.99446131
0.99355741
0.99478595
0.99447405
0.99457805
0.99438494
0.99378037
0.99495573
0.99472893
0.99525769
0.99481377
0.99551614
0.99545596
0.9957289
0.99994815
0.9996751
0.99972871
0.99891363
1.0003988
1.0003003
1.0008095
1.0004289
1.001073
1.0011734
1.0013283
1.0015899
1.0012984
1.0017973
1.0018776
1.0021011
1.0020786
1.0024255
1.0019883
1.0026136
1.0025952
1.0028022
1.0028322
1.0029343
1.0029674
1.0030416
1.0030448
1.0031337
1.0031483
1.0031909
1.003202
1.0032271
1.0032299
1.0032455
1.0032355
1.003241
1.0032156
1.0032087
1.0031813
1.0031624
1.0031338
1.0031041
1.0030721
1.0030297
1.0029943
1.002929
1.0028962
1.0027645
1.0027534
1.0026764
1.0026186
1.0025452
1.0024624
1.0023657
1.0022417
1.0020905
1.0018374
1.0019197
1.0017884
1.0017365
1.0016352
1.0015619
1.0014027
1.0013524
1.0010044
1.0011212
1.0009602
1.0008782
1.0007644
1.0006402
1.000495
1.0003334
1.0001264
0.99989892
0.99955475
0.99919441
0.99850177
0.99911156
0.9987668
0.99872615
0.99857435
0.99844905
0.99814905
0.99804441
0.99723478
0.99763866
0.99738136
0.99721458
0.99694575
0.99668473
0.99604789
0.99578708
0.99342695
0.99575819
0.99493496
0.99505723
0.9948777
0.99452869
0.99365498
0.9948493
0.99451243
0.99460723
0.99441726
0.99382606
0.99497518
0.99472986
0.99525391
0.99481574
0.99551375
0.99545115
0.9957247
0.99996302
0.99970205
0.99978356
0.99898629
1.000431
1.0003327
1.00084
1.0004701
1.0010967
1.0011954
1.0013487
1.0016129
1.0013321
1.0018122
1.0018912
1.0021138
1.0020905
1.00244
1.0020134
1.002616
1.0025994
1.0028035
1.0028345
1.0029354
1.0029684
1.0030425
1.0030456
1.0031326
1.0031476
1.0031897
1.0032009
1.0032259
1.0032287
1.0032444
1.0032343
1.0032405
1.0032156
1.003209
1.0031825
1.0031639
1.0031356
1.0031063
1.0030747
1.0030328
1.0029979
1.0029331
1.0029004
1.0027741
1.00276
1.0026849
1.0026269
1.0025538
1.0024715
1.0023756
1.0022517
1.002106
1.0018661
1.0019381
1.0018108
1.0017587
1.0016579
1.0015837
1.0014265
1.0013721
1.001041
1.0011505
1.000991
1.0009094
1.0007958
1.000671
1.0005257
1.0003638
1.0001573
0.99993001
0.99958761
0.99924048
0.99860603
0.99918395
0.99883655
0.99879245
0.99863531
0.99850254
0.99820318
0.99809186
0.99732704
0.99771179
0.99744855
0.99727743
0.99700639
0.99674037
0.996114
0.99584522
0.99363083
0.99588595
0.99504752
0.99515221
0.9949658
0.99461498
0.9937712
0.99492901
0.99457319
0.99465505
0.99446559
0.99388433
0.9950068
0.99474115
0.99525466
0.9948213
0.99551354
0.99544771
0.99572088
0.99998756
0.99974097
0.99984511
0.99906375
1.0004612
1.000368
1.000871
1.0005127
1.0011204
1.0012191
1.001371
1.0016355
1.0013661
1.0018264
1.0019047
1.0021268
1.0021023
1.0024543
1.0020352
1.0026161
1.0026027
1.0028039
1.0028362
1.002936
1.0029689
1.0030428
1.0030457
1.0031308
1.0031464
1.0031881
1.0031994
1.0032243
1.003227
1.0032428
1.0032324
1.0032394
1.0032153
1.003209
1.0031828
1.0031644
1.0031366
1.0031075
1.0030764
1.0030347
1.0030002
1.0029359
1.0029034
1.0027819
1.0027647
1.0026909
1.0026328
1.0025601
1.0024779
1.0023825
1.002259
1.0021188
1.0018919
1.0019507
1.0018279
1.0017759
1.0016758
1.0016008
1.0014459
1.0013891
1.0010728
1.0011739
1.0010164
1.0009357
1.0008225
1.0006978
1.0005524
1.00039
1.0001831
0.99995536
0.99961283
0.99928417
0.99869337
0.99924541
0.9988991
0.99885758
0.99869845
0.99855997
0.99826116
0.99814086
0.99742292
0.99778455
0.9975165
0.99734417
0.99707177
0.99679992
0.99618171
0.99589444
0.99384094
0.9960087
0.99516786
0.99526501
0.99507197
0.99471712
0.99390566
0.99502396
0.99465565
0.99472565
0.99453214
0.99395819
0.99505119
0.99476756
0.99526422
0.99483355
0.99551694
0.99544709
0.99571867
1.000022
0.99978851
0.9999079
0.99914429
1.000485
1.0004023
1.0009002
1.0005542
1.001143
1.0012424
1.0013918
1.001656
1.0013976
1.0018374
1.0019164
1.0021383
1.0021128
1.0024672
1.0020538
1.0026142
1.0026045
1.0028028
1.0028368
1.0029355
1.0029686
1.0030422
1.0030449
1.0031282
1.0031445
1.0031858
1.0031973
1.0032221
1.0032248
1.0032407
1.0032299
1.0032375
1.0032145
1.0032085
1.0031827
1.0031645
1.003137
1.003108
1.0030771
1.0030356
1.0030013
1.0029374
1.0029048
1.0027883
1.0027676
1.0026954
1.0026369
1.0025643
1.0024821
1.0023871
1.0022643
1.00213
1.001914
1.0019601
1.0018411
1.0017886
1.001689
1.0016133
1.0014606
1.0014001
1.0011006
1.0011919
1.0010353
1.0009559
1.0008431
1.0007184
1.000573
1.0004098
1.0002026
0.99997383
0.99963251
0.99932249
0.99876808
0.99929554
0.9989499
0.99891308
0.99875498
0.9986135
0.99831584
0.99818793
0.99751359
0.99785309
0.99757961
0.99740827
0.99713576
0.99685779
0.99624597
0.99595463
0.99403495
0.9961214
0.99528176
0.99538089
0.99518392
0.99482432
0.99405617
0.99513069
0.99475531
0.99481587
0.99461811
0.99405057
0.99510882
0.99481115
0.99528786
0.99485643
0.99552623
0.99545138
0.99571948
1.0000644
0.99983982
0.99996725
0.99922364
1.0005064
1.0004351
1.0009268
1.0005906
1.0011617
1.001263
1.0014103
1.001674
1.0014243
1.0018462
1.0019256
1.0021473
1.0021201
1.0024773
1.0020704
1.0026101
1.0026046
1.0028
1.002836
1.0029338
1.0029671
1.0030405
1.0030434
1.0031248
1.0031418
1.0031829
1.0031946
1.0032194
1.003222
1.0032381
1.0032268
1.003235
1.003213
1.0032076
1.0031822
1.0031642
1.0031369
1.003108
1.0030773
1.0030359
1.0030017
1.0029382
1.0029052
1.0027936
1.0027694
1.0026982
1.0026395
1.0025669
1.0024845
1.0023901
1.0022681
1.0021399
1.0019345
1.0019674
1.0018515
1.0017979
1.0016985
1.0016222
1.0014719
1.0014093
1.0011252
1.0012042
1.00105
1.0009704
1.0008575
1.0007329
1.0005872
1.0004232
1.0002154
0.99998551
0.99964553
0.99935545
0.99883456
0.99933602
0.99898883
0.99895705
0.99880066
0.99865763
0.99836256
0.99822782
0.9975929
0.99791485
0.99763526
0.99746556
0.99719314
0.99690886
0.9963039
0.9959993
0.99421524
0.99621042
0.99538293
0.99548768
0.99528905
0.99492469
0.99421632
0.99524361
0.9948655
0.99491906
0.99471828
0.9941641
0.99518097
0.99487268
0.99532866
0.99489355
0.99554504
0.99546317
0.99572526
1.0001105
0.99988936
1.000022
0.99929799
1.0005192
1.0004639
1.0009506
1.0006216
1.0011775
1.0012803
1.0014242
1.0016891
1.0014465
1.0018525
1.0019321
1.0021534
1.0021247
1.0024845
1.002086
1.0026036
1.0026029
1.0027953
1.0028339
1.0029307
1.0029645
1.0030378
1.0030411
1.0031206
1.0031385
1.0031793
1.0031913
1.003216
1.0032186
1.0032349
1.0032231
1.0032319
1.0032108
1.0032062
1.0031813
1.0031634
1.0031364
1.0031076
1.003077
1.0030357
1.0030016
1.0029385
1.0029052
1.0027984
1.0027705
1.0027002
1.002641
1.0025684
1.0024859
1.0023921
1.0022712
1.0021488
1.0019539
1.0019735
1.0018602
1.0018048
1.0017056
1.0016282
1.0014803
1.001415
1.0011468
1.0012138
1.0010605
1.0009806
1.0008672
1.0007422
1.0005961
1.000431
1.0002228
0.99999197
0.99965617
0.99938369
0.9988956
0.99936846
0.99901898
0.99899005
0.99883491
0.99869084
0.99839872
0.99826094
0.9976585
0.99796855
0.9976807
0.99751301
0.99724022
0.99694939
0.99635144
0.9960367
0.99438818
0.99628785
0.99546767
0.99557925
0.99538017
0.995013
0.99437633
0.99535364
0.99497766
0.99502649
0.99482601
0.99429583
0.99526748
0.99495189
0.99538799
0.99494821
0.99557688
0.99548512
0.99573882
1.0001557
0.99993359
1.0000718
0.99936684
1.0005308
1.0004889
1.0009692
1.0006489
1.0011889
1.0012939
1.001435
1.0017011
1.0014654
1.0018579
1.0019363
1.0021569
1.002127
1.0024896
1.0021007
1.0025956
1.0025998
1.0027892
1.0028304
1.0029265
1.002961
1.0030342
1.0030381
1.0031157
1.0031344
1.003175
1.0031874
1.0032122
1.0032148
1.0032313
1.0032191
1.0032284
1.0032081
1.0032041
1.00318
1.0031623
1.0031355
1.0031069
1.0030764
1.0030351
1.0030011
1.0029385
1.0029048
1.0028031
1.002771
1.0027015
1.0026418
1.0025692
1.0024865
1.0023935
1.002274
1.002157
1.0019723
1.001979
1.0018678
1.0018104
1.0017109
1.0016325
1.0014873
1.0014198
1.0011671
1.0012205
1.001069
1.0009878
1.0008733
1.0007476
1.0006006
1.0004343
1.0002255
0.99999391
0.99966369
0.99940837
0.99895299
0.99939394
0.99904399
0.9990161
0.99886047
0.99871469
0.99842622
0.99828803
0.99771305
0.9980136
0.99771824
0.99755076
0.99727683
0.99697938
0.99639241
0.99606612
0.99455055
0.99635972
0.9955394
0.99565558
0.99545607
0.99509148
0.99452747
0.99545311
0.99508369
0.99512952
0.99493568
0.99443572
0.99536483
0.99504658
0.99546478
0.99502225
0.99562418
0.99552058
0.99576299
1.0001958
0.99997189
1.0001171
0.99943189
1.0005371
1.0005105
1.0009844
1.0006744
1.0011971
1.0013046
1.0014434
1.0017105
1.0014823
1.0018598
1.0019384
1.0021583
1.0021275
1.0024933
1.0021149
1.002587
1.0025956
1.0027819
1.0028257
1.0029213
1.0029565
1.0030298
1.0030346
1.0031103
1.0031298
1.0031703
1.003183
1.0032079
1.0032105
1.0032273
1.0032147
1.0032247
1.0032051
1.0032015
1.0031779
1.0031608
1.0031344
1.0031059
1.0030756
1.0030344
1.0030004
1.0029386
1.0029043
1.0028075
1.0027714
1.0027026
1.0026422
1.0025695
1.0024868
1.0023946
1.0022767
1.0021648
1.0019899
1.0019841
1.001875
1.0018152
1.0017154
1.0016356
1.001493
1.0014229
1.0011861
1.0012249
1.0010754
1.0009925
1.0008768
1.00075
1.000602
1.0004343
1.0002253
0.99999352
0.99967186
0.99943121
0.99900814
0.99941356
0.99906632
0.9990364
0.99887934
0.99873137
0.99844714
0.99830904
0.99776244
0.9980494
0.99774642
0.99757934
0.99730355
0.99699986
0.99642325
0.99609166
0.99470445
0.99641965
0.99560238
0.99572009
0.99551923
0.99516231
0.99466583
0.99553982
0.99517861
0.9952222
0.995039
0.9945748
0.99546676
0.99515159
0.99555487
0.99511458
0.99568801
0.99557214
0.99580047
1.0002293
1.0000047
1.000158
0.9994954
1.0005429
1.000529
1.0009952
1.0006987
1.0012044
1.0013128
1.0014499
1.0017177
1.0014987
1.0018607
1.0019392
1.0021581
1.0021261
1.0024945
1.0021293
1.0025771
1.0025907
1.0027735
1.00282
1.0029152
1.0029512
1.0030246
1.0030306
1.0031044
1.0031247
1.003165
1.0031782
1.0032031
1.0032058
1.003223
1.00321
1.0032207
1.0032018
1.0031986
1.0031756
1.0031587
1.0031331
1.0031047
1.0030746
1.0030336
1.0029996
1.0029386
1.0029036
1.0028117
1.0027718
1.0027036
1.0026424
1.0025697
1.0024871
1.0023956
1.0022797
1.0021723
1.0020069
1.0019893
1.0018819
1.0018194
1.0017191
1.0016381
1.0014986
1.0014258
1.0012043
1.0012277
1.0010808
1.0009959
1.0008784
1.0007502
1.0006011
1.0004319
1.0002225
0.99999108
0.99967877
0.99944918
0.99906199
0.99942844
0.99908744
0.99905393
0.9988942
0.99874316
0.99846336
0.99832643
0.99780881
0.99807718
0.99776977
0.99760114
0.99732312
0.9970136
0.99645226
0.99611624
0.99485589
0.99647506
0.99565842
0.99577606
0.99557337
0.99522787
0.99479114
0.99561503
0.99526084
0.99530256
0.99513133
0.99470736
0.99556562
0.99525932
0.99565122
0.99522054
0.99576704
0.99564022
0.99585294
1.000257
1.000033
1.0001951
0.9995585
1.000546
1.0005449
1.0010035
1.0007224
1.0012089
1.0013197
1.0014538
1.0017227
1.0015146
1.0018609
1.0019389
1.0021566
1.0021253
1.0024924
1.0021441
1.0025664
1.0025853
1.0027642
1.0028135
1.0029083
1.0029453
1.0030186
1.0030261
1.0030981
1.0031192
1.0031593
1.003173
1.0031979
1.0032008
1.0032184
1.0032052
1.0032166
1.0031983
1.0031955
1.0031731
1.0031564
1.003131
1.0031032
1.0030736
1.0030328
1.0029987
1.0029387
1.0029028
1.0028158
1.0027723
1.0027048
1.0026427
1.00257
1.0024874
1.0023969
1.0022828
1.0021796
1.0020235
1.0019947
1.0018889
1.0018235
1.0017232
1.0016401
1.0015037
1.0014282
1.0012214
1.0012297
1.0010852
1.0009977
1.0008786
1.000749
1.0005984
1.0004279
1.0002186
0.99998841
0.9996884
0.99946809
0.9991148
0.99944049
0.99910758
0.99906835
0.99890554
0.99875167
0.99847714
0.9983408
0.99785414
0.9980994
0.99778623
0.99761667
0.99733663
0.99702217
0.99647448
0.99614115
0.99500763
0.99652391
0.99571029
0.99582553
0.99562153
0.99529128
0.99490723
0.99568141
0.99533164
0.99537198
0.99521488
0.99482916
0.99565564
0.99536249
0.99574581
0.99533262
0.99585661
0.99572254
0.99592011
1.0002803
1.0000587
1.0002296
0.99962116
1.00055
1.0005587
1.0010089
1.0007457
1.0012133
1.0013251
1.0014582
1.0017251
1.00153
1.0018613
1.0019381
1.002154
1.0021242
1.0024879
1.0021588
1.0025555
1.0025795
1.0027541
1.0028062
1.0029006
1.0029388
1.003012
1.0030212
1.0030914
1.0031133
1.0031532
1.0031673
1.0031923
1.0031956
1.0032135
1.0032002
1.0032125
1.0031946
1.0031922
1.0031705
1.003154
1.003129
1.0031013
1.0030718
1.0030317
1.0029977
1.002939
1.0029015
1.0028193
1.0027731
1.0027062
1.002643
1.0025703
1.0024878
1.0023985
1.0022866
1.0021869
1.0020394
1.0020004
1.001896
1.0018276
1.0017272
1.0016423
1.0015089
1.0014307
1.0012374
1.0012309
1.0010893
1.0009989
1.0008779
1.0007466
1.0005947
1.0004228
1.0002137
0.99998557
0.99969902
0.99948815
0.99916648
0.99945149
0.99912658
0.99908146
0.99891542
0.99875805
0.99848908
0.99835228
0.99789839
0.99811907
0.99780003
0.99762896
0.9973466
0.99702782
0.99650017
0.99616176
0.99515844
0.9965695
0.99575916
0.99587184
0.99566542
0.99535461
0.9950169
0.99574069
0.99539507
0.9954334
0.99529129
0.99494143
0.99573495
0.99545668
0.99583253
0.99544288
0.99594947
0.99581367
0.99599883
1.0003004
1.0000831
1.0002624
0.9996833
1.0005536
1.0005714
1.0010126
1.0007689
1.0012162
1.0013301
1.0014617
1.0017253
1.0015452
1.0018609
1.0019369
1.0021507
1.0021231
1.0024818
1.0021722
1.0025447
1.0025736
1.0027435
1.0027983
1.0028923
1.0029318
1.0030048
1.003016
1.0030843
1.003107
1.0031467
1.0031614
1.0031864
1.0031901
1.0032085
1.0031951
1.0032083
1.0031909
1.0031889
1.0031679
1.0031516
1.0031269
1.0030994
1.0030701
1.0030304
1.0029962
1.0029388
1.0029003
1.0028225
1.0027741
1.002708
1.0026439
1.0025711
1.002489
1.0024005
1.0022911
1.0021944
1.0020549
1.0020065
1.0019036
1.001832
1.0017314
1.0016445
1.0015144
1.0014337
1.0012524
1.0012321
1.001093
1.0009994
1.0008766
1.0007436
1.0005902
1.000417
1.0002089
0.99998408
0.99970999
0.99950952
0.99921781
0.99946276
0.99914376
0.99909239
0.99892335
0.99876314
0.99850083
0.99836312
0.99794114
0.9981363
0.99780998
0.99763723
0.99735314
0.99703232
0.99652465
0.99618733
0.99530837
0.9966107
0.99580628
0.99591616
0.99570843
0.99541942
0.9951216
0.99579482
0.99545387
0.99548952
0.99536255
0.99504652
0.99580436
0.99554095
0.99590885
0.99554581
0.9960384
0.9959064
0.99608329
1.0003183
1.0001072
1.0002938
0.99974502
1.0005578
1.0005839
1.0010155
1.0007921
1.0012192
1.0013342
1.0014651
1.0017239
1.0015607
1.001861
1.0019357
1.0021468
1.0021225
1.0024736
1.0021855
1.0025336
1.0025678
1.0027325
1.00279
1.0028835
1.0029243
1.002997
1.0030103
1.0030765
1.0031003
1.0031397
1.0031552
1.0031803
1.0031844
1.0032033
1.0031901
1.0032042
1.0031872
1.0031855
1.0031652
1.0031492
1.0031249
1.0030976
1.0030685
1.0030292
1.0029949
1.0029389
1.0028991
1.0028258
1.0027749
1.0027102
1.0026454
1.0025726
1.0024907
1.0024032
1.0022963
1.0022021
1.00207
1.0020132
1.0019116
1.0018368
1.0017361
1.0016478
1.0015202
1.001437
1.0012667
1.0012333
1.0010967
1.0009997
1.000875
1.0007401
1.0005853
1.0004112
1.0002043
0.99998337
0.99972216
0.99953236
0.9992688
0.99947389
0.99916032
0.99910281
0.99893121
0.99876787
0.99851186
0.99837393
0.99798488
0.99814784
0.99781964
0.99764584
0.99735916
0.99703601
0.99655126
0.9962178
0.9954578
0.99664614
0.99585448
0.9959596
0.99575193
0.99548624
0.99522274
0.99584571
0.99550989
0.99554254
0.99543048
0.995147
0.99586592
0.99561658
0.99597526
0.99563933
0.99611872
0.9959943
0.99616679
1.0003345
1.0001308
1.0003244
0.99980652
1.0005593
1.0005968
1.0010171
1.0008156
1.0012217
1.0013382
1.0014672
1.0017213
1.0015764
1.0018607
1.0019346
1.0021423
1.0021221
1.0024635
1.0021986
1.0025225
1.002562
1.0027212
1.0027811
1.002874
1.0029165
1.0029887
1.0030039
1.0030684
1.0030931
1.0031325
1.0031488
1.0031741
1.0031787
1.003198
1.003185
1.0032001
1.0031836
1.0031822
1.0031626
1.0031468
1.0031231
1.0030961
1.0030671
1.0030282
1.0029937
1.0029395
1.0028986
1.0028292
1.0027759
1.0027119
1.0026472
1.0025748
1.0024932
1.0024065
1.0023022
1.0022101
1.0020849
1.0020204
1.0019201
1.0018422
1.0017415
1.0016515
1.0015266
1.0014408
1.0012805
1.0012347
1.0011004
1.0009997
1.0008732
1.0007366
1.0005805
1.0004056
1.0002008
0.99998572
0.99973615
0.99955658
0.99931922
0.99947712
0.99917815
0.99911249
0.998938
0.99877222
0.99852446
0.99838521
0.99802867
0.99815134
0.99783098
0.99765161
0.99736294
0.99704155
0.99657878
0.99625386
0.99560658
0.99667542
0.99590573
0.99600334
0.99579716
0.99555492
0.99532192
0.99589455
0.99556489
0.99559448
0.9954968
0.99524442
0.99592173
0.99568566
0.99603363
0.9957241
0.996189
0.99607374
0.99624409
1.0003497
1.0001541
1.0003544
0.99986839
1.0005618
1.0006102
1.0010185
1.0008395
1.0012242
1.0013416
1.0014693
1.0017176
1.0015923
1.0018606
1.0019338
1.0021372
1.0021226
1.0024517
1.0022113
1.0025107
1.002556
1.0027097
1.002772
1.0028641
1.0029083
1.00298
1.0029974
1.0030602
1.0030857
1.003125
1.0031422
1.0031677
1.003173
1.0031927
1.00318
1.003196
1.0031802
1.0031791
1.0031602
1.0031446
1.0031214
1.0030947
1.0030659
1.0030277
1.0029929
1.0029403
1.0028983
1.0028327
1.0027777
1.0027144
1.0026492
1.0025771
1.0024961
1.0024104
1.0023088
1.0022184
1.0020994
1.0020283
1.0019291
1.0018482
1.0017474
1.0016558
1.0015335
1.0014452
1.0012936
1.0012365
1.0011044
1.0009999
1.0008717
1.0007332
1.000576
1.0004008
1.0001987
0.99998766
0.99975125
0.99958206
0.99936901
0.99947915
0.99919685
0.99912224
0.99894576
0.9987777
0.99853792
0.9983976
0.99807187
0.99815742
0.99784118
0.99765848
0.99736915
0.99704915
0.9966087
0.99629551
0.99575383
0.99670034
0.99596076
0.99604753
0.99584534
0.99562565
0.99541987
0.99594183
0.99562063
0.99564673
0.9955628
0.99533984
0.99597356
0.99575022
0.99608603
0.99580187
0.99625009
0.99614403
0.99631277
1.0003644
1.0001777
1.0003831
0.9999308
1.0005654
1.0006244
1.0010188
1.0008636
1.0012271
1.0013453
1.0014708
1.0017126
1.0016084
1.0018595
1.0019335
1.0021319
1.0021236
1.0024379
1.0022238
1.0024996
1.0025492
1.0026981
1.0027627
1.0028538
1.0028998
1.0029708
1.0029908
1.0030519
1.0030783
1.0031173
1.0031355
1.0031612
1.0031673
1.0031873
1.0031751
1.0031919
1.0031769
1.0031761
1.003158
1.0031427
1.0031199
1.0030936
1.0030649
1.0030275
1.0029926
1.0029417
1.0028986
1.0028365
1.0027798
1.0027173
1.0026518
1.00258
1.0024997
1.0024151
1.0023161
1.002227
1.0021137
1.0020369
1.0019387
1.001855
1.0017541
1.0016609
1.0015412
1.0014504
1.0013064
1.0012387
1.0011085
1.0010002
1.0008704
1.0007302
1.0005721
1.0003969
1.0001982
0.99999388
0.99976841
0.99960888
0.99941745
0.99948007
0.9992158
0.99913119
0.99895317
0.99878325
0.9985522
0.9984115
0.99811325
0.99815724
0.99785235
0.99766402
0.99737384
0.99705844
0.99664148
0.99634569
0.99589629
0.99672169
0.99602046
0.99609346
0.9958968
0.99569891
0.9955153
0.9959885
0.99567855
0.9957003
0.99562923
0.99543412
0.99602276
0.99581192
0.99613428
0.9958745
0.9963038
0.9962063
0.99637285
1.0003787
1.0002021
1.0004102
0.99999366
1.0005702
1.0006394
1.0010192
1.0008878
1.0012298
1.0013487
1.001473
1.0017066
1.0016233
1.0018581
1.001933
1.002126
1.0021252
1.0024228
1.0022361
1.0024892
1.0025419
1.0026857
1.0027532
1.0028432
1.002891
1.0029613
1.0029839
1.0030435
1.0030708
1.0031097
1.0031289
1.0031546
1.0031616
1.0031819
1.0031703
1.0031879
1.0031737
1.0031733
1.0031561
1.0031411
1.0031188
1.0030927
1.0030644
1.0030277
1.0029926
1.0029434
1.0028995
1.0028404
1.0027828
1.0027208
1.0026551
1.0025836
1.0025041
1.0024205
1.002324
1.002236
1.0021276
1.002046
1.0019487
1.0018625
1.0017616
1.0016669
1.0015496
1.0014564
1.0013188
1.0012416
1.0011131
1.001001
1.0008697
1.0007278
1.0005691