/*--------------------------------*- C++ -*----------------------------------*\
| =========                 |                                                 |
| \\      /  F ield         | OpenFOAM: The Open Source CFD Toolbox           |
|  \\    /   O peration     | Version:  v2006                                 |
|   \\  /    A nd           | Website:  www.openfoam.com                      |
|    \\/     M anipulation  |                                                 |
\*---------------------------------------------------------------------------*/
FoamFile
{
    version     2.0;
    format      ascii;
    class       volScalarField;
    location    "4000";
    object      T;
}
// * * * * * * * * * * * * * * * * * * * * * * * * * * * * * * * * * * * * * //

dimensions      [0 0 0 1 0 0 0];


internalField   nonuniform List<scalar> 
103740
(
1.0005663
1.0005997
1.0005651
1.0004759
1.0005872
1.0006978
1.0007285
1.0007392
1.000784
1.0008523
1.0008762
1.0009083
1.0009043
1.000943
1.0009973
1.001023
1.0010443
1.0010671
1.0010558
1.0010984
1.0011454
1.0011613
1.0011835
1.0011959
1.0012092
1.001219
1.0012269
1.0012369
1.0012452
1.0012504
1.0012551
1.0012582
1.0012604
1.0012616
1.0012618
1.0012608
1.0012586
1.0012557
1.0012516
1.001247
1.0012414
1.0012351
1.0012277
1.0012196
1.0012094
1.001199
1.0011823
1.0011688
1.0011605
1.0011476
1.0011342
1.0011184
1.0011001
1.0010784
1.0010503
1.0010032
1.0009847
1.0009856
1.0009736
1.0009599
1.0009441
1.000921
1.0009014
1.0008601
1.0008262
1.000824
1.0008061
1.0007871
1.0007643
1.0007379
1.0007078
1.0006719
1.0006306
1.0005763
1.0005157
1.000384
1.000341
1.0003944
1.0003755
1.0003576
1.0003359
1.0002964
1.0002625
1.0001778
1.0000983
1.0001132
1.0000899
1.00005
1.0000042
0.99991874
0.99984632
0.9995832
0.99948272
0.99969951
0.99966329
0.999647
0.99961178
0.9994664
0.99946982
0.99957763
0.99956544
0.9995503
0.99945607
0.99948067
0.99958738
0.99961396
0.99961278
0.99961951
0.99967312
0.99969238
0.99970066
1.0005662
1.0005997
1.0005657
1.0004753
1.0005854
1.000697
1.0007284
1.0007388
1.000783
1.0008517
1.0008757
1.0009083
1.000904
1.000942
1.0009966
1.0010225
1.0010438
1.0010671
1.0010553
1.0010971
1.0011446
1.0011607
1.0011831
1.0011956
1.0012089
1.0012188
1.0012266
1.0012366
1.0012451
1.0012503
1.001255
1.0012582
1.0012604
1.0012617
1.0012618
1.0012609
1.0012586
1.0012557
1.0012516
1.001247
1.0012414
1.0012351
1.0012277
1.0012196
1.0012094
1.001199
1.0011822
1.0011687
1.0011604
1.0011475
1.0011341
1.0011183
1.0010998
1.0010779
1.0010494
1.0010019
1.0009845
1.0009856
1.0009732
1.0009595
1.0009436
1.0009203
1.0009005
1.0008584
1.0008254
1.0008238
1.0008053
1.0007863
1.0007633
1.0007367
1.0007064
1.0006701
1.0006284
1.0005734
1.0005112
1.0003783
1.0003407
1.0003957
1.0003747
1.0003568
1.0003348
1.0002948
1.0002603
1.0001742
1.0000966
1.0001133
1.0000887
1.0000485
1.000002
0.99991565
0.99984095
0.99957404
0.99948235
0.99970293
0.9996624
0.99964642
0.9996098
0.99946388
0.99946982
0.99957881
0.99956513
0.99954956
0.99945503
0.9994813
0.99958815
0.99961396
0.99961276
0.99961967
0.99967346
0.99969238
0.99970066
1.0005657
1.0005999
1.0005678
1.0004731
1.0005806
1.0006953
1.0007279
1.0007377
1.0007805
1.0008504
1.0008745
1.0009083
1.0009032
1.0009398
1.0009952
1.0010216
1.0010428
1.0010673
1.0010543
1.001095
1.0011435
1.0011599
1.0011825
1.0011951
1.0012085
1.0012185
1.0012263
1.0012363
1.0012448
1.0012501
1.0012548
1.0012581
1.0012603
1.0012617
1.0012619
1.0012609
1.0012586
1.0012557
1.0012516
1.001247
1.0012413
1.001235
1.0012276
1.0012194
1.0012092
1.0011988
1.0011816
1.0011682
1.0011601
1.001147
1.0011334
1.0011172
1.0010984
1.001076
1.0010461
1.0009971
1.000983
1.0009855
1.000972
1.0009581
1.0009419
1.0009179
1.0008978
1.0008535
1.0008226
1.0008231
1.0008033
1.0007842
1.0007608
1.0007338
1.000703
1.0006661
1.0006234
1.0005668
1.0005014
1.0003639
1.0003381
1.0003991
1.0003728
1.0003551
1.0003324
1.0002914
1.000256
1.000166
1.0000921
1.0001136
1.0000863
1.0000451
0.99999742
0.99990868
0.99983009
0.99955051
0.99947961
0.99971273
0.99966024
0.99964509
0.99960572
0.99945683
0.99946966
0.99958225
0.99956441
0.99954808
0.99945186
0.99948255
0.99959016
0.99961406
0.99961268
0.99961995
0.99967437
0.9996925
0.99970064
1.0005648
1.0006005
1.0005718
1.0004674
1.000571
1.0006919
1.0007268
1.0007351
1.0007756
1.0008479
1.0008722
1.0009081
1.0009012
1.0009356
1.0009927
1.00102
1.0010411
1.0010674
1.0010523
1.0010913
1.0011418
1.0011586
1.0011816
1.0011943
1.0012078
1.001218
1.0012258
1.0012358
1.0012445
1.0012499
1.0012547
1.001258
1.0012603
1.0012617
1.0012619
1.0012609
1.0012586
1.0012556
1.0012515
1.0012469
1.0012412
1.0012349
1.0012273
1.0012191
1.0012086
1.0011979
1.00118
1.0011668
1.0011591
1.0011455
1.0011316
1.0011148
1.0010952
1.0010716
1.0010394
1.0009877
1.0009778
1.0009844
1.0009694
1.000955
1.0009382
1.0009129
1.0008921
1.0008442
1.0008156
1.0008205
1.0007991
1.0007797
1.0007557
1.000728
1.0006963
1.0006581
1.0006138
1.0005543
1.0004833
1.0003387
1.0003271
1.0004027
1.0003699
1.0003516
1.0003279
1.0002848
1.0002478
1.0001511
1.0000818
1.0001124
1.0000819
1.0000386
0.99998883
0.99989552
0.99981071
0.99950825
0.99946642
0.99972996
0.9996573
0.99964242
0.99959852
0.99944305
0.99946747
0.99958914
0.99956352
0.99954549
0.9994455
0.99948402
0.99959457
0.99961449
0.99961262
0.99962048
0.99967637
0.99969289
0.99970073
1.0005632
1.0006017
1.0005768
1.0004565
1.0005556
1.0006864
1.000724
1.0007298
1.0007675
1.0008434
1.0008683
1.000907
1.0008972
1.0009288
1.0009885
1.0010171
1.0010384
1.0010671
1.0010486
1.0010858
1.0011392
1.0011565
1.0011801
1.0011931
1.0012069
1.0012173
1.001225
1.0012351
1.0012441
1.0012496
1.0012545
1.0012579
1.0012602
1.0012617
1.0012619
1.0012609
1.0012586
1.0012556
1.0012514
1.0012467
1.0012409
1.0012345
1.0012267
1.0012182
1.0012073
1.0011963
1.0011773
1.0011641
1.0011569
1.0011427
1.0011281
1.0011104
1.0010896
1.0010642
1.0010289
1.0009734
1.0009669
1.0009795
1.0009645
1.0009493
1.0009315
1.0009044
1.0008822
1.0008298
1.0008026
1.000813
1.0007916
1.0007717
1.0007469
1.0007179
1.0006848
1.0006447
1.0005979
1.0005344
1.0004557
1.0003008
1.0003034
1.0003998
1.0003654
1.0003456
1.0003203
1.000274
1.0002344
1.0001283
1.0000626
1.0001058
1.0000742
1.0000277
0.99997459
0.99987443
0.99978089
0.99944818
0.99943436
0.99974769
0.99965493
0.99963799
0.99958767
0.99942157
0.99945934
0.99959859
0.9995631
0.99954177
0.99943551
0.99948389
0.99960201
0.99961603
0.99961285
0.99962146
0.99967993
0.99969396
0.99970109
1.0005613
1.0006038
1.0005803
1.000439
1.0005345
1.0006778
1.0007183
1.0007204
1.0007556
1.0008364
1.0008624
1.0009042
1.0008899
1.0009189
1.0009823
1.0010125
1.0010346
1.0010655
1.0010424
1.001078
1.0011354
1.0011535
1.001178
1.0011913
1.0012055
1.0012162
1.0012238
1.0012341
1.0012435
1.0012491
1.0012542
1.0012577
1.0012601
1.0012617
1.0012619
1.0012609
1.0012585
1.0012555
1.0012512
1.0012465
1.0012405
1.0012338
1.0012257
1.0012169
1.0012054
1.0011937
1.0011735
1.0011598
1.0011529
1.0011382
1.0011228
1.0011038
1.0010814
1.0010536
1.0010151
1.0009552
1.0009502
1.0009684
1.0009555
1.0009399
1.0009209
1.0008916
1.0008674
1.0008106
1.0007831
1.000798
1.0007787
1.0007588
1.000733
1.0007026
1.0006676
1.000625
1.0005749
1.0005061
1.0004185
1.0002522
1.0002644
1.0003818
1.0003562
1.0003356
1.0003081
1.000258
1.0002145
1.0000976
1.0000332
1.0000889
1.0000603
1.000011
0.99995327
0.99984441
0.99974003
0.99937289
0.9993811
0.99974774
0.99965332
0.99963151
0.99957281
0.99939284
0.99944222
0.99960625
0.9995634
0.99953727
0.99942232
0.99948135
0.9996119
0.99961983
0.99961392
0.99962314
0.99968522
0.99969627
0.99970205
1.0005592
1.0006064
1.0005783
1.0004146
1.0005084
1.0006652
1.0007084
1.0007059
1.0007398
1.0008264
1.000854
1.0008981
1.0008786
1.0009058
1.0009735
1.0010059
1.0010292
1.0010613
1.0010333
1.001068
1.0011302
1.0011493
1.0011751
1.0011889
1.0012036
1.0012146
1.0012223
1.0012328
1.0012426
1.0012485
1.0012538
1.0012574
1.00126
1.0012617
1.001262
1.0012609
1.0012585
1.0012554
1.001251
1.001246
1.0012397
1.0012328
1.0012242
1.0012149
1.0012026
1.0011901
1.0011686
1.0011541
1.0011469
1.0011318
1.0011153
1.0010949
1.0010706
1.0010403
1.000999
1.0009351
1.0009295
1.0009503
1.0009405
1.0009254
1.0009054
1.0008742
1.0008475
1.000787
1.0007579
1.0007746
1.0007584
1.0007395
1.0007131
1.0006811
1.000644
1.0005984
1.0005444
1.0004698
1.0003733
1.0001969
1.0002115
1.0003436
1.0003349
1.0003181
1.0002894
1.0002354
1.000187
1.0000596
0.99999381
1.000058
1.0000357
0.99998575
0.9999234
0.99980504
0.99968865
0.99928791
0.99930953
0.99971935
0.99964668
0.99962107
0.99955278
0.999358
0.99941492
0.99960461
0.99956285
0.99953189
0.99940707
0.99947454
0.99962176
0.99962642
0.99961671
0.99962578
0.99969188
0.99970022
0.99970401
1.000557
1.0006079
1.000567
1.0003837
1.0004787
1.0006474
1.0006922
1.000686
1.0007204
1.0008127
1.0008423
1.000887
1.000863
1.0008898
1.000962
1.0009969
1.0010216
1.0010538
1.0010216
1.0010563
1.0011235
1.001144
1.0011712
1.0011857
1.001201
1.0012125
1.0012203
1.0012312
1.0012416
1.0012478
1.0012533
1.0012571
1.0012599
1.0012617
1.001262
1.0012608
1.0012584
1.0012552
1.0012506
1.0012453
1.0012387
1.0012314
1.0012223
1.0012123
1.0011993
1.0011859
1.0011633
1.0011476
1.0011394
1.0011237
1.0011061
1.0010843
1.0010581
1.0010255
1.0009823
1.000916
1.0009084
1.0009273
1.0009193
1.0009051
1.0008847
1.0008521
1.0008229
1.0007603
1.0007289
1.0007445
1.0007304
1.0007128
1.0006863
1.0006531
1.0006138
1.0005652
1.0005071
1.0004268
1.0003226
1.0001397
1.0001493
1.0002863
1.0002953
1.0002879
1.000261
1.0002045
1.0001508
1.0000147
0.99994583
1.0000124
0.99999692
0.9999491
0.99988332
0.99975616
0.99962775
0.99919974
0.99922647
0.9996548
0.99962122
0.99960096
0.99952445
0.99931733
0.99937748
0.99958699
0.99955738
0.99952372
0.99939042
0.99946291
0.99962766
0.99963507
0.99962161
0.99962959
0.99969913
0.99970576
0.99970718
1.0005537
1.0006046
1.0005437
1.0003479
1.0004463
1.0006238
1.0006693
1.0006611
1.0006977
1.0007952
1.0008265
1.0008703
1.0008435
1.0008715
1.0009476
1.0009851
1.0010111
1.0010427
1.0010079
1.0010435
1.0011154
1.0011376
1.0011662
1.0011816
1.0011977
1.0012097
1.0012179
1.0012293
1.0012403
1.0012469
1.0012527
1.0012568
1.0012597
1.0012617
1.0012621
1.0012608
1.0012583
1.0012549
1.0012501
1.0012446
1.0012376
1.0012298
1.0012201
1.0012095
1.0011957
1.0011814
1.0011583
1.001141
1.0011313
1.0011148
1.0010961
1.001073
1.0010454
1.0010109
1.000967
1.0009013
1.0008898
1.000903
1.0008943
1.0008804
1.0008598
1.0008266
1.0007954
1.0007325
1.0006988
1.0007111
1.0006967
1.0006796
1.0006532
1.0006191
1.000578
1.0005267
1.0004649
1.0003795
1.00027
1.0000848
1.0000845
1.0002175
1.000238
1.0002413
1.0002193
1.0001628
1.0001051
0.99996317
0.99989108
0.99995412
0.99994303
0.99989888
0.99983155
0.99969757
0.99955818
0.99911395
0.99913916
0.99955958
0.9995663
0.99956158
0.99948085
0.99926837
0.99933034
0.99955091
0.99954024
0.9995084
0.99937103
0.99944629
0.99962575
0.99964341
0.99962784
0.99963429
0.99970621
0.99971232
0.99971149
1.0005471
1.0005915
1.0005088
1.000309
1.0004124
1.0005943
1.0006404
1.0006325
1.0006725
1.0007738
1.0008062
1.0008486
1.0008213
1.0008522
1.000931
1.0009707
1.0009975
1.001029
1.0009937
1.0010307
1.0011061
1.0011303
1.0011604
1.001177
1.0011938
1.0012065
1.0012152
1.0012272
1.0012388
1.0012459
1.001252
1.0012564
1.0012595
1.0012616
1.0012621
1.0012608
1.0012582
1.0012547
1.0012496
1.0012438
1.0012365
1.0012282
1.001218
1.0012068
1.0011924
1.0011773
1.0011541
1.0011355
1.0011239
1.0011063
1.0010867
1.0010625
1.0010339
1.0009984
1.0009547
1.0008922
1.000875
1.0008818
1.0008703
1.0008552
1.0008339
1.0008004
1.0007679
1.0007063
1.0006711
1.0006786
1.0006617
1.0006434
1.0006164
1.0005814
1.0005388
1.0004852
1.0004204
1.0003312
1.0002192
1.0000356
1.0000258
1.0001476
1.0001696
1.0001799
1.0001634
1.0001092
1.0000493
0.99990536
0.99983097
0.99988728
0.99987693
0.99983566
0.99976787
0.99962949
0.9994806
0.99903497
0.99905191
0.99944685
0.99948029
0.99949458
0.99941593
0.99920697
0.99927268
0.9994971
0.99950558
0.99948054
0.99934476
0.99942379
0.99961339
0.99964765
0.99963308
0.99963884
0.99971229
0.99971909
0.99971645
1.0005332
1.0005661
1.0004649
1.0002685
1.000378
1.0005604
1.0006076
1.000602
1.0006458
1.0007492
1.0007824
1.000824
1.0007983
1.000833
1.0009129
1.0009543
1.0009816
1.0010139
1.0009809
1.0010195
1.0010963
1.0011227
1.0011542
1.0011719
1.0011896
1.0012031
1.0012126
1.0012251
1.0012372
1.0012448
1.0012513
1.001256
1.0012593
1.0012616
1.0012622
1.0012608
1.0012581
1.0012545
1.0012492
1.0012431
1.0012355
1.0012268
1.0012163
1.0012045
1.0011897
1.001174
1.0011511
1.0011314
1.001118
1.0010993
1.0010788
1.0010539
1.0010246
1.0009887
1.0009456
1.0008869
1.0008655
1.0008653
1.0008503
1.0008332
1.0008106
1.0007768
1.0007433
1.0006838
1.000648
1.0006502
1.0006294
1.0006086
1.00058
1.0005437
1.0004996
1.0004442
1.000377
1.0002853
1.0001735
0.99999527
0.99997648
1.0000848
1.0001003
1.0001109
1.0000973
1.0000456
0.99998529
0.99984292
0.99976704
0.99981672
0.99980405
0.9997631
0.9996944
0.99955352
0.99939729
0.99896495
0.99896428
0.99933042
0.99937228
0.999401
0.99932783
0.99913055
0.99920353
0.99942699
0.99944995
0.999435
0.99930587
0.99939315
0.99958923
0.99964267
0.99963419
0.99964135
0.99971646
0.99972495
0.99972125
1.0005097
1.0005292
1.0004161
1.0002282
1.0003451
1.0005247
1.0005738
1.0005717
1.000619
1.0007229
1.000757
1.0007994
1.0007766
1.0008152
1.000895
1.0009374
1.0009652
1.0009991
1.0009707
1.0010102
1.0010868
1.0011154
1.0011479
1.0011669
1.0011854
1.0011998
1.0012101
1.0012231
1.0012357
1.0012438
1.0012506
1.0012556
1.0012591
1.0012615
1.0012622
1.0012609
1.0012581
1.0012543
1.001249
1.0012427
1.0012348
1.0012258
1.0012149
1.0012029
1.0011877
1.0011717
1.0011492
1.0011288
1.0011138
1.0010941
1.0010727
1.0010473
1.0010176
1.0009815
1.0009391
1.0008838
1.0008589
1.0008542
1.0008358
1.0008161
1.0007918
1.0007575
1.000723
1.0006658
1.0006302
1.0006271
1.0006024
1.0005785
1.0005475
1.0005094
1.0004637
1.0004066
1.0003377
1.0002447
1.0001349
0.99996035
0.99994394
1.0000349
1.0000386
1.000044
1.000029
0.99997795
0.99991771
0.99977943
0.99970246
0.99974782
0.99973035
0.9996868
0.99961579
0.99947337
0.99931308
0.998901
0.99887858
0.99922121
0.9992577
0.99929131
0.99922302
0.99904216
0.9991229
0.99934244
0.99937414
0.99936804
0.9992521
0.99935159
0.99955268
0.99962378
0.99962694
0.99963896
0.99971724
0.99972849
0.99972468
1.000476
1.0004842
1.0003678
1.0001904
1.0003154
1.0004896
1.0005419
1.000544
1.000594
1.0006971
1.0007325
1.0007771
1.000758
1.0007999
1.0008783
1.0009217
1.00095
1.0009858
1.0009633
1.001003
1.0010782
1.0011087
1.0011421
1.0011623
1.0011816
1.0011968
1.001208
1.0012214
1.0012342
1.0012429
1.00125
1.0012552
1.0012589
1.0012614
1.0012623
1.001261
1.001258
1.0012542
1.0012488
1.0012424
1.0012344
1.0012252
1.0012141
1.0012017
1.0011864
1.0011701
1.001148
1.0011272
1.0011108
1.0010904
1.0010684
1.0010424
1.0010124
1.0009764
1.0009346
1.0008821
1.0008553
1.000846
1.0008253
1.0008035
1.0007774
1.0007424
1.000707
1.000652
1.0006169
1.0006089
1.0005808
1.0005541
1.0005207
1.0004805
1.000433
1.0003743
1.000304
1.0002105
1.0001033
0.99993389
0.99992284
0.99999723
0.99998897
0.99998664
0.99996679
0.99991397
0.99985312
0.99971966
0.99964285
0.99968504
0.99966097
0.99961266
0.99953795
0.99939445
0.99923346
0.99883884
0.9988116
0.99913021
0.99915051
0.99918027
0.99911415
0.99895126
0.99903322
0.99924661
0.99928279
0.99928289
0.99918212
0.99929605
0.99950328
0.99958899
0.99960607
0.9996279
0.99971233
0.99972767
0.99972535
1.0004343
1.000436
1.0003251
1.000158
1.0002906
1.000457
1.0005131
1.0005209
1.0005721
1.0006737
1.0007107
1.0007578
1.0007436
1.0007871
1.0008639
1.000908
1.0009372
1.0009749
1.0009578
1.0009973
1.0010707
1.0011029
1.0011368
1.0011583
1.0011782
1.0011942
1.0012062
1.0012199
1.0012329
1.0012421
1.0012494
1.0012549
1.0012587
1.0012613
1.0012623
1.0012612
1.0012582
1.0012542
1.0012486
1.0012421
1.0012341
1.0012248
1.0012136
1.0012011
1.0011857
1.0011691
1.0011474
1.0011263
1.0011088
1.0010878
1.0010652
1.0010389
1.0010086
1.0009726
1.0009314
1.0008814
1.0008532
1.0008401
1.0008175
1.000794
1.0007664
1.0007308
1.0006946
1.0006415
1.0006063
1.0005948
1.0005641
1.0005348
1.0004991
1.000457
1.0004077
1.0003476
1.000276
1.0001825
1.0000781
0.99991506
0.99990896
0.99996928
0.9999514
0.99994141
0.99991529
0.9998591
0.99979672
0.99966734
0.99959355
0.99963116
0.99959925
0.99954529
0.99946625
0.99932215
0.99916221
0.99878531
0.99876297
0.99906185
0.99905842
0.99908048
0.99901385
0.998868
0.99894228
0.99914559
0.9991827
0.99918639
0.99909923
0.9992253
0.99943993
0.99953765
0.99956854
0.99960472
0.9996981
0.99971992
0.99972133
1.0003892
1.0003896
1.0002892
1.0001334
1.0002705
1.0004288
1.0004886
1.000502
1.0005539
1.0006537
1.0006925
1.0007417
1.0007329
1.0007768
1.0008517
1.0008967
1.0009268
1.0009663
1.0009535
1.0009928
1.0010641
1.0010979
1.0011322
1.0011548
1.0011752
1.0011919
1.0012046
1.0012185
1.0012318
1.0012413
1.0012489
1.0012545
1.0012585
1.0012613
1.0012623
1.0012613
1.0012584
1.0012541
1.0012486
1.001242
1.0012339
1.0012245
1.0012132
1.0012006
1.0011852
1.0011685
1.001147
1.0011258
1.0011075
1.001086
1.0010629
1.0010362
1.0010058
1.0009699
1.0009292
1.0008812
1.0008521
1.0008357
1.0008117
1.0007867
1.0007579
1.0007218
1.0006848
1.0006334
1.0005983
1.0005831
1.0005507
1.0005193
1.0004817
1.0004379
1.0003869
1.0003255
1.0002528
1.0001596
1.0000579
0.99990209
0.99989971
0.99994827
0.99992339
0.99990671
0.99987447
0.99981465
0.99975025
0.99962391
0.99955675
0.99958641
0.99954637
0.9994871
0.99940387
0.99925974
0.99910093
0.99874623
0.99872726
0.99900541
0.99898618
0.99899818
0.99892926
0.998798
0.99885975
0.99904858
0.99908247
0.99908746
0.99901005
0.99914354
0.99936298
0.99947009
0.99951306
0.99956628
0.99967098
0.99970263
0.99970978
1.000346
1.0003486
1.00026
1.0001164
1.0002543
1.0004051
1.0004681
1.0004876
1.0005391
1.000637
1.0006777
1.0007288
1.0007246
1.0007687
1.0008415
1.0008875
1.0009185
1.0009592
1.0009501
1.0009889
1.0010583
1.0010936
1.0011281
1.0011517
1.0011725
1.0011899
1.0012032
1.0012172
1.0012306
1.0012405
1.0012484
1.0012542
1.0012583
1.0012612
1.0012623
1.0012615
1.0012587
1.0012544
1.0012485
1.0012419
1.0012337
1.0012243
1.001213
1.0012003
1.0011848
1.0011681
1.0011468
1.0011254
1.0011066
1.0010848
1.0010613
1.0010343
1.0010037
1.0009678
1.0009277
1.0008814
1.0008514
1.0008325
1.0008071
1.0007809
1.0007511
1.0007145
1.000677
1.000627
1.000592
1.0005734
1.0005395
1.0005066
1.0004673
1.000422
1.0003695
1.0003069
1.0002332
1.0001408
1.0000414
0.99989343
0.99989354
0.99993212
0.99990186
0.99987958
0.99984207
0.99977919
0.99971276
0.99958924
0.99953056
0.99954935
0.99950203
0.99943835
0.99935142
0.99920776
0.9990496
0.99871854
0.99870453
0.9989573
0.99892927
0.9989329
0.9988616
0.9987423
0.99879162
0.99896296
0.99899026
0.99899485
0.99892332
0.99905845
0.99927589
0.9993886
0.99944082
0.9995108
0.99962855
0.99967246
0.99968789
1.0003087
1.0003144
1.0002367
1.0001051
1.0002414
1.0003856
1.0004514
1.0004766
1.0005272
1.0006232
1.0006659
1.0007183
1.0007177
1.0007621
1.0008331
1.00088
1.0009119
1.0009532
1.0009474
1.0009854
1.001053
1.0010896
1.0011243
1.0011488
1.0011701
1.001188
1.0012018
1.001216
1.0012296
1.0012398
1.0012478
1.0012539
1.0012582
1.0012612
1.0012624
1.0012616
1.001259
1.0012548
1.001249
1.0012419
1.0012337
1.0012241
1.0012128
1.0012
1.0011846
1.0011677
1.0011466
1.0011251
1.001106
1.001084
1.0010601
1.0010329
1.0010021
1.0009664
1.0009267
1.0008819
1.0008512
1.0008299
1.0008034
1.0007762
1.0007454
1.0007085
1.0006705
1.0006218
1.0005866
1.0005651
1.00053
1.0004956
1.000455
1.0004084
1.0003547
1.000291
1.0002164
1.0001249
1.0000273
0.99988784
0.99988937
0.99991936
0.99988433
0.9998574
0.99981561
0.99975047
0.99968219
0.99956212
0.99951055
0.9995193
0.99946514
0.99939788
0.99930775
0.99916486
0.99900707
0.99869873
0.99869228
0.99891849
0.99888333
0.99888118
0.99880855
0.99870001
0.99873812
0.99889185
0.99891112
0.99891468
0.99884691
0.99897775
0.99918521
0.99929843
0.99935613
0.99943936
0.99956979
0.99962684
0.99965297
1.0002783
1.0002868
1.000219
1.0000972
1.0002311
1.0003697
1.000438
1.0004678
1.0005175
1.0006117
1.0006563
1.0007094
1.000712
1.0007566
1.0008259
1.0008736
1.0009063
1.0009481
1.0009453
1.0009826
1.001048
1.0010858
1.0011208
1.0011461
1.0011679
1.0011862
1.0012005
1.0012148
1.0012285
1.001239
1.0012473
1.0012536
1.0012582
1.0012612
1.0012624
1.0012618
1.0012593
1.0012552
1.0012495
1.0012424
1.0012337
1.0012241
1.0012127
1.0011999
1.0011844
1.0011675
1.0011466
1.001125
1.0011056
1.0010834
1.0010593
1.0010319
1.001001
1.0009654
1.0009261
1.0008827
1.0008511
1.0008279
1.0008004
1.0007722
1.0007407
1.0007035
1.000665
1.0006175
1.000582
1.0005579
1.0005217
1.000486
1.0004442
1.0003964
1.0003415
1.0002769
1.0002018
1.0001113
1.0000151
0.99988857
0.9998865
0.99990876
0.99986895
0.99983841
0.99979322
0.99972657
0.99965662
0.999541
0.99949407
0.99949463
0.99943407
0.99936405
0.99927106
0.99912911
0.99897159
0.99868472
0.99868766
0.99888723
0.99884635
0.99883975
0.99876676
0.99866754
0.99869803
0.99883511
0.99884685
0.99884915
0.9987846
0.99890652
0.99909894
0.99920734
0.99926619
0.99935662
0.99949608
0.99956534
0.99960332
1.0002543
1.0002648
1.0002059
1.0000917
1.000223
1.0003566
1.0004271
1.0004606
1.0005095
1.0006018
1.000648
1.0007015
1.0007079
1.000752
1.0008196
1.0008681
1.0009016
1.0009436
1.0009435
1.0009804
1.0010433
1.0010821
1.0011175
1.0011435
1.0011657
1.0011845
1.0011992
1.0012135
1.0012274
1.0012382
1.0012468
1.0012535
1.0012581
1.0012612
1.0012624
1.0012619
1.0012596
1.0012556
1.00125
1.001243
1.0012344
1.0012245
1.0012127
1.0011998
1.0011843
1.0011674
1.0011467
1.0011249
1.0011053
1.001083
1.0010588
1.0010311
1.0010002
1.0009647
1.0009261
1.0008837
1.0008512
1.0008262
1.0007979
1.0007688
1.0007365
1.0006991
1.0006602
1.0006138
1.0005778
1.0005513
1.0005142
1.0004773
1.0004344
1.0003856
1.0003296
1.0002643
1.0001886
1.0000993
1.0000043
0.99988979
0.99988429
0.99989898
0.99985503
0.99982158
0.99977365
0.99970604
0.99963478
0.99952438
0.99947898
0.99947356
0.99940791
0.99933539
0.99923958
0.99909868
0.99894152
0.99867574
0.9986862
0.99886069
0.99881551
0.99880671
0.9987334
0.99864208
0.9986678
0.99878949
0.99879627
0.99879702
0.99873558
0.99884815
0.99902287
0.99912271
0.99917922
0.99927002
0.99941223
0.99949031
0.99953926
1.0002352
1.0002469
1.0001958
1.0000888
1.0002165
1.0003459
1.0004181
1.0004545
1.0005028
1.0005932
1.0006402
1.0006946
1.0007049
1.0007479
1.000814
1.0008632
1.0008976
1.0009395
1.000942
1.0009781
1.0010387
1.0010785
1.0011142
1.0011409
1.0011636
1.0011829
1.0011979
1.0012123
1.0012263
1.0012374
1.0012464
1.0012533
1.0012581
1.0012612
1.0012624
1.0012621
1.0012599
1.0012561
1.0012506
1.0012437
1.0012352
1.0012252
1.0012135
1.0012002
1.0011847
1.0011674
1.0011476
1.0011256
1.0011051
1.0010827
1.0010583
1.0010307
1.0009996
1.0009643
1.0009263
1.0008848
1.0008516
1.000825
1.0007957
1.0007658
1.0007329
1.0006952
1.000656
1.0006105
1.000574
1.0005453
1.0005074
1.0004693
1.0004253
1.0003755
1.0003186
1.0002526
1.0001767
1.0000884
0.99999456
0.99989131
0.99988245
0.99988896
0.99984233
0.99980637
0.99975603
0.99968789
0.99961584
0.99951089
0.99946502
0.99945388
0.99938598
0.99931055
0.99921185
0.9990722
0.99891575
0.99867671
0.99868625
0.99883756
0.99878964
0.9987788
0.99870686
0.99862181
0.99864468
0.99875282
0.99875549
0.99875545
0.99869759
0.9988016
0.99895909
0.99904908
0.99910148
0.99918745
0.99932563
0.99940721
0.99946399
1.0002199
1.0002317
1.0001877
1.0000884
1.0002114
1.0003368
1.0004105
1.0004491
1.0004972
1.0005856
1.0006331
1.0006886
1.0007026
1.0007442
1.0008089
1.0008587
1.0008938
1.0009359
1.000942
1.0009759
1.0010341
1.0010749
1.0011109
1.0011383
1.0011614
1.0011812
1.0011966
1.0012111
1.0012252
1.0012367
1.001246
1.0012531
1.001258
1.0012612
1.0012624
1.0012621
1.0012602
1.0012566
1.0012512
1.0012444
1.001236
1.0012261
1.0012144
1.0012011
1.0011856
1.0011684
1.0011486
1.0011267
1.0011051
1.0010825
1.001058
1.0010303
1.0009994
1.0009642
1.0009266
1.000886
1.0008522
1.000824
1.0007939
1.0007632
1.0007296
1.0006917
1.0006523
1.0006075
1.0005704
1.0005397
1.0005009
1.0004617
1.0004167
1.000366
1.0003083
1.0002416
1.0001657
1.0000783
0.9999866
0.99989308
0.99988025
0.99987833
0.99983092
0.99979239
0.99973996
0.99967146
0.99959912
0.9994994
0.99945386
0.9994345
0.99936604
0.99928811
0.99918696
0.99904877
0.99889362
0.99867874
0.9986888
0.99881816
0.9987679
0.99875492
0.998685
0.99860531
0.99862664
0.99872298
0.99872206
0.99872194
0.99866797
0.99876451
0.99890676
0.99898747
0.9990356
0.99911439
0.99924369
0.99932337
0.99938339
1.0002076
1.0002187
1.000181
1.0000905
1.0002077
1.000329
1.0004039
1.0004443
1.0004925
1.0005788
1.0006267
1.0006833
1.0007005
1.0007408
1.0008042
1.0008544
1.0008903
1.0009329
1.0009422
1.000974
1.0010295
1.0010711
1.0011075
1.0011357
1.0011592
1.0011795
1.0011955
1.0012103
1.0012243
1.001236
1.0012455
1.0012528
1.0012579
1.0012612
1.0012624
1.0012621
1.0012605
1.001257
1.0012518
1.0012451
1.0012368
1.001227
1.0012154
1.0012021
1.0011867
1.0011694
1.0011497
1.0011278
1.0011061
1.0010825
1.0010579
1.0010301
1.0009992
1.0009643
1.000927
1.0008873
1.0008529
1.0008233
1.0007924
1.0007608
1.0007266
1.0006885
1.0006488
1.0006046
1.0005669
1.0005344
1.0004948
1.0004544
1.0004085
1.000357
1.0002984
1.0002313
1.0001554
1.0000688
0.99998
0.99989483
0.99987836
0.99986725
0.99981987
0.99977928
0.99972506
0.99965635
0.99958406
0.99948924
0.99944359
0.99941738
0.99934659
0.99926714
0.9991643
0.99902769
0.99887418
0.99868183
0.99869214
0.9988016
0.99874941
0.99873435
0.99866651
0.99859184
0.99861181
0.99869815
0.99869437
0.99869448
0.99864442
0.9987346
0.99886384
0.99893666
0.99898115
0.9990528
0.99917121
0.99924536
0.99930431
1.0001975
1.0002077
1.0001755
1.0000948
1.0002072
1.0003222
1.000398
1.0004399
1.0004884
1.0005728
1.0006212
1.0006783
1.0006986
1.0007376
1.0007997
1.0008503
1.000887
1.0009302
1.0009424
1.0009725
1.0010249
1.0010672
1.0011041
1.0011329
1.001157
1.0011777
1.0011944
1.0012095
1.0012235
1.0012353
1.0012449
1.0012524
1.0012577
1.0012611
1.0012624
1.0012621
1.0012606
1.0012575
1.0012524
1.0012458
1.0012376
1.0012279
1.0012164
1.0012031
1.0011877
1.0011705
1.0011509
1.0011291
1.0011071
1.0010834
1.0010579
1.00103
1.0009992
1.0009647
1.0009278
1.0008887
1.0008537
1.0008228
1.0007911
1.0007587
1.0007239
1.0006855
1.0006456
1.0006019
1.0005635
1.0005292
1.0004888
1.0004474
1.0004006
1.0003482
1.0002889
1.0002214
1.0001456
1.0000596
0.99997421
0.99989644
0.99987591
0.99985717
0.99980869
0.99976666
0.99971103
0.99964226
0.99957025
0.99947995
0.99943364
0.99940132
0.99932822
0.99924729
0.99914328
0.99900839
0.99885716
0.99868576
0.99869577
0.99878727
0.99873384
0.99871614
0.99865056
0.99858052
0.9985993
0.99867716
0.99867133
0.99867128
0.99862537
0.9987101
0.99882822
0.99889465
0.99893629
0.99900194
0.9991097
0.99917692
0.99923211
1.0001892
1.0001988
1.000171
1.0001006
1.0002075
1.0003162
1.0003927
1.0004359
1.0004847
1.0005674
1.0006163
1.0006736
1.0006968
1.000735
1.0007954
1.0008463
1.0008838
1.0009277
1.0009427
1.0009717
1.0010206
1.0010631
1.0011005
1.00113
1.0011546
1.0011757
1.001193
1.0012084
1.0012225
1.0012344
1.0012442
1.0012519
1.0012574
1.001261
1.0012623
1.0012621
1.0012606
1.0012577
1.001253
1.0012466
1.0012385
1.0012288
1.0012174
1.0012042
1.0011889
1.0011716
1.0011522
1.0011304
1.0011083
1.0010844
1.0010587
1.0010306
1.0009997
1.0009653
1.0009287
1.0008902
1.0008547
1.0008226
1.00079
1.0007568
1.0007215
1.0006828
1.0006427
1.0005992
1.0005601
1.0005243
1.0004831
1.0004406
1.0003929
1.0003397
1.0002798
1.000212
1.0001361
1.0000519
0.99996991
0.99989772
0.99987273
0.99984765
0.99979819
0.99975447
0.99969763
0.99962896
0.99955742
0.99947121
0.99942373
0.9993859
0.99931077
0.99922829
0.99912353
0.99899042
0.99884172
0.99869074
0.99869958
0.99877419
0.9987207
0.99870028
0.99863628
0.99857082
0.99858891
0.99865908
0.99865187
0.99865113
0.9986096
0.99868974
0.99879816
0.99885947
0.998899
0.99895994
0.99905829
0.9991188
0.9991693
1.0001823
1.0001918
1.0001681
1.0001073
1.0002083
1.000311
1.0003879
1.0004323
1.0004814
1.0005625
1.000612
1.0006694
1.0006951
1.0007333
1.0007913
1.0008424
1.0008805
1.0009251
1.0009431
1.0009715
1.0010174
1.0010588
1.0010968
1.0011269
1.001152
1.0011736
1.0011914
1.0012071
1.0012213
1.0012334
1.0012434
1.0012512
1.0012569
1.0012607
1.0012622
1.0012621
1.0012606
1.0012578
1.0012534
1.0012473
1.0012394
1.0012298
1.0012185
1.0012053
1.0011901
1.0011729
1.0011535
1.0011318
1.0011095
1.0010855
1.0010597
1.0010314
1.0010004
1.0009662
1.0009299
1.0008918
1.0008559
1.0008227
1.0007892
1.0007552
1.0007193
1.0006803
1.0006398
1.0005965
1.0005567
1.0005194
1.0004774
1.0004339
1.0003853
1.0003313
1.0002708
1.0002028
1.0001269
1.0000446
0.99996591
0.99989833
0.99986931
0.99983886
0.99978835
0.9997427
0.99968477
0.99961628
0.99954532
0.99946276
0.99941367
0.9993708
0.999294
0.99921001
0.99910485
0.99897343
0.99882977
0.99869673
0.99870421
0.99876223
0.99870936
0.99868579
0.99862364
0.99856269
0.99858075
0.99864325
0.9986349
0.99863322
0.99859647
0.99867252
0.99877238
0.99882953
0.99886753
0.99892487
0.9990152
0.99906992
0.99911592
1.0001768
1.0001864
1.0001665
1.0001149
1.0002096
1.0003066
1.0003837
1.0004293
1.0004788
1.0005579
1.0006082
1.0006657
1.0006943
1.0007322
1.0007877
1.0008386
1.0008773
1.0009226
1.0009434
1.0009713
1.001015
1.0010553
1.0010928
1.0011237
1.0011493
1.0011714
1.0011896
1.0012056
1.00122
1.0012323
1.0012424
1.0012505
1.0012564
1.0012604
1.0012621
1.001262
1.0012606
1.0012579
1.0012536
1.0012477
1.00124
1.0012307
1.0012195
1.0012065
1.0011913
1.0011741
1.0011549
1.0011333
1.0011108
1.0010868
1.0010608
1.0010324
1.0010013
1.0009673
1.0009312
1.0008936
1.0008573
1.0008231
1.0007887
1.0007539
1.0007173
1.000678
1.0006372
1.0005938
1.0005534
1.0005147
1.0004719
1.0004274
1.0003779
1.0003231
1.0002621
1.0001939
1.0001182
1.000038
0.99996234
0.9998985
0.99986568
0.99983054
0.99977905
0.99973135
0.99967238
0.99960413
0.99953377
0.9994544
0.99940346
0.99935572
0.99927769
0.99919237
0.99908709
0.99895714
0.99881898
0.99870331