/*--------------------------------*- C++ -*----------------------------------*\
| =========                 |                                                 |
| \\      /  F ield         | OpenFOAM: The Open Source CFD Toolbox           |
|  \\    /   O peration     | Version:  v2006                                 |
|   \\  /    A nd           | Website:  www.openfoam.com                      |
|    \\/     M anipulation  |                                                 |
\*---------------------------------------------------------------------------*/
FoamFile
{
    version     2.0;
    format      ascii;
    class       volScalarField;
    location    "4000";
    object      TMean;
}
// * * * * * * * * * * * * * * * * * * * * * * * * * * * * * * * * * * * * * //

dimensions      [0 0 0 1 0 0 0];


internalField   nonuniform List<scalar> 
103740
(
0.99991406
0.99994709
0.99988937
0.99976678
0.99990792
1.0000402
1.0000718
1.0000754
1.0001302
1.000214
1.0002394
1.0002781
1.0002604
1.0003098
1.00038
1.0004079
1.0004313
1.0004582
1.0004212
1.0004838
1.0005521
1.0005731
1.0006044
1.0006206
1.0006381
1.0006505
1.0006588
1.0006772
1.0006934
1.0007053
1.0007178
1.0007284
1.0007365
1.0007444
1.000742
1.0007511
1.0007483
1.0007453
1.0007393
1.0007296
1.0007183
1.0007072
1.0006982
1.000691
1.0006836
1.0006749
1.0006611
1.0006451
1.000629
1.00061
1.000589
1.0005648
1.0005365
1.0005031
1.0004772
1.0004541
1.0004333
1.0004179
1.0004069
1.0003952
1.000373
1.0003554
1.0003514
1.0003342
1.0003135
1.0003084
1.0002994
1.0002987
1.000299
1.0002963
1.0002898
1.000277
1.0002589
1.00023
1.0001962
1.0001136
1.0000888
1.0001195
1.0001043
1.0000886
1.0000699
1.0000389
1.0000138
0.99995281
0.99989907
0.99990916
0.99989349
0.99986492
0.99983222
0.99976783
0.99971618
0.99951629
0.99945118
0.99960432
0.99958093
0.99956847
0.99954163
0.99942829
0.99942989
0.99950874
0.99949856
0.99948624
0.99940895
0.99942755
0.99950601
0.99952797
0.99952437
0.99952947
0.99957039
0.99958724
0.99959428
0.99991409
0.99994737
0.99989051
0.9997663
0.99990602
1.0000397
1.0000721
1.0000754
1.0001293
1.0002137
1.0002392
1.0002787
1.0002605
1.0003089
1.0003796
1.0004079
1.0004311
1.000459
1.0004211
1.0004824
1.0005515
1.0005728
1.0006043
1.0006207
1.0006382
1.0006508
1.000659
1.0006774
1.0006938
1.0007058
1.0007184
1.000729
1.000737
1.0007452
1.0007427
1.0007518
1.0007491
1.0007461
1.00074
1.0007303
1.0007191
1.000708
1.000699
1.0006919
1.0006844
1.0006758
1.000662
1.000646
1.00063
1.000611
1.0005899
1.0005657
1.0005373
1.0005036
1.0004773
1.0004539
1.0004338
1.0004185
1.0004072
1.0003955
1.0003733
1.0003557
1.0003516
1.0003338
1.0003135
1.0003088
1.0002996
1.0002991
1.0002994
1.0002966
1.00029
1.0002769
1.0002585
1.0002291
1.0001943
1.0001108
1.0000894
1.000121
1.0001044
1.0000888
1.0000698
1.0000384
1.0000129
0.99995088
0.99989844
0.99990974
0.9998931
0.99986424
0.99983105
0.99976603
0.99971273
0.99951029
0.99945144
0.99960719
0.99958069
0.99956843
0.99954053
0.9994268
0.99943035
0.99950998
0.99949865
0.99948598
0.99940844
0.99942824
0.99950681
0.9995282
0.99952452
0.99952965
0.99957073
0.99958732
0.99959432
0.99991413
0.99994837
0.99989439
0.99976418
0.99990074
1.0000387
1.0000731
1.0000755
1.0001274
1.0002136
1.0002393
1.0002807
1.0002611
1.0003074
1.0003794
1.0004084
1.0004315
1.0004617
1.0004211
1.0004803
1.0005513
1.000573
1.0006049
1.0006215
1.0006393
1.0006523
1.0006604
1.0006788
1.0006955
1.0007076
1.0007203
1.0007311
1.0007391
1.0007475
1.0007448
1.000754
1.0007513
1.0007482
1.0007421
1.0007325
1.0007213
1.0007104
1.0007015
1.0006944
1.000687
1.0006783
1.0006645
1.0006487
1.0006327
1.0006135
1.0005923
1.000568
1.0005393
1.0005051
1.0004776
1.0004531
1.0004348
1.0004201
1.0004082
1.0003966
1.0003744
1.0003566
1.0003522
1.0003329
1.0003136
1.0003102
1.0003005
1.0003005
1.0003007
1.0002976
1.0002907
1.0002771
1.0002581
1.0002276
1.0001907
1.0001044
1.0000902
1.0001255
1.0001054
1.0000899
1.0000704
1.0000381
1.000012
0.99994723
0.99989713
0.99991156
0.99989283
0.99986326
0.9998292
0.99976245
0.99970642
0.99949543
0.99945085
0.99961558
0.99958041
0.99956871
0.99953872
0.99942284
0.99943163
0.9995137
0.99949916
0.99948589
0.99940699
0.99943006
0.99950911
0.99952891
0.99952499
0.99953026
0.9995717
0.99958762
0.99959443
0.99991408
0.99995057
0.9999017
0.99975821
0.99988999
1.0000369
1.0000744
1.0000747
1.0001233
1.0002131
1.0002391
1.0002838
1.0002613
1.0003042
1.000379
1.0004092
1.0004322
1.000466
1.0004206
1.0004768
1.0005513
1.0005735
1.0006062
1.0006232
1.0006413
1.0006549
1.0006627
1.0006813
1.0006985
1.0007109
1.0007238
1.0007347
1.0007427
1.0007516
1.0007485
1.0007579
1.0007551
1.0007518
1.0007457
1.0007361
1.0007252
1.0007145
1.0007058
1.0006988
1.0006913
1.0006825
1.0006684
1.0006528
1.0006369
1.0006174
1.0005959
1.0005712
1.0005422
1.0005071
1.0004773
1.0004509
1.0004349
1.0004221
1.0004095
1.0003979
1.0003758
1.0003574
1.0003526
1.0003308
1.0003126
1.0003119
1.0003018
1.0003021
1.0003021
1.0002986
1.0002912
1.0002767
1.0002566
1.0002243
1.0001839
1.0000929
1.0000875
1.0001318
1.0001073
1.0000914
1.0000711
1.0000373
1.0000099
0.99994043
0.99989323
0.99991364
0.99989226
0.99986117
0.99982557
0.99975554
0.99969516
0.99946879
0.9994439
0.99963037
0.99958054
0.999569
0.99953554
0.99941484
0.99943232
0.99952088
0.99950034
0.99948575
0.99940386
0.99943277
0.99951382
0.99953043
0.99952592
0.99953143
0.99957378
0.99958834
0.99959474
0.99991405
0.99995459
0.99991121
0.99974634
0.99987305
1.0000336
1.0000749
1.0000714
1.0001162
1.0002115
1.0002385
1.0002874
1.0002596
1.0002986
1.0003779
1.0004097
1.0004332
1.000471
1.0004183
1.0004713
1.000551
1.000574
1.000608
1.0006253
1.0006442
1.0006584
1.000666
1.0006848
1.0007029
1.0007155
1.0007287
1.0007399
1.0007478
1.0007573
1.0007538
1.0007635
1.0007606
1.000757
1.000751
1.0007415
1.0007308
1.0007204
1.000712
1.0007049
1.0006973
1.0006883
1.0006737
1.0006582
1.0006423
1.0006222
1.0006002
1.0005749
1.0005454
1.0005091
1.0004764
1.0004469
1.0004329
1.0004232
1.0004105
1.0003989
1.0003768
1.0003578
1.0003522
1.0003271
1.0003094
1.0003123
1.0003027
1.0003034
1.000303
1.0002988
1.0002903
1.0002747
1.000253
1.000218
1.0001727
1.0000751
1.0000785
1.000136
1.00011
1.0000929
1.0000714
1.0000353
1.0000059
0.99992979
0.99988481
0.99991356
0.9998907
0.99985721
0.99981914
0.99974415
0.99967766
0.99943051
0.99942501
0.99964706
0.99958219
0.99956913
0.99953069
0.99940211
0.99942979
0.99953099
0.9995028
0.99948562
0.99939873
0.99943538
0.99952157
0.99953342
0.99952761
0.99953338
0.99957739
0.99958989
0.99959551
0.99991444
0.9999608
0.99991941
0.99972739
0.99985077
1.000028
1.000073
1.000064
1.000106
1.0002082
1.0002371
1.0002897
1.0002549
1.0002905
1.0003755
1.0004096
1.0004345
1.0004749
1.0004136
1.000464
1.0005501
1.0005742
1.0006099
1.000628
1.0006478
1.0006627
1.0006701
1.0006895
1.0007084
1.0007215
1.000735
1.0007464
1.0007545
1.0007645
1.0007609
1.0007709
1.0007679
1.000764
1.000758
1.0007486
1.0007383
1.0007282
1.00072
1.0007129
1.0007049
1.0006955
1.0006803
1.0006646
1.0006484
1.0006277
1.0006048
1.0005787
1.0005484
1.0005108
1.000475
1.0004417
1.0004288
1.0004218
1.0004103
1.0003989
1.0003771
1.0003574
1.0003505
1.000322
1.0003039
1.00031
1.0003023
1.0003035
1.0003024
1.0002971
1.0002873
1.00027
1.0002463
1.0002079
1.0001568
1.0000515
1.0000611
1.0001324
1.0001111
1.0000934
1.0000703
1.0000313
0.99999899
0.99991527
0.99987083
0.99990804
0.99988631
0.99985041
0.99980898
0.99972762
0.99965348
0.99938235
0.99939217
0.99965354
0.99958571
0.99956901
0.99952397
0.99938493
0.99942175
0.99954099
0.99950689
0.9994858
0.9993919
0.99943689
0.99953207
0.99953878
0.99953056
0.99953639
0.9995828
0.99959279
0.99959707
0.99991585
0.99996862
0.99992143
0.99970161
0.99982492
1.0000187
1.0000663
1.0000516
1.0000927
1.0002025
1.0002337
1.0002882
1.0002462
1.00028
1.0003712
1.0004085
1.0004351
1.0004753
1.0004061
1.0004555
1.0005483
1.0005741
1.0006118
1.0006309
1.0006517
1.0006674
1.0006748
1.0006949
1.0007148
1.0007284
1.0007424
1.000754
1.0007622
1.0007728
1.0007694
1.0007796
1.0007766
1.0007726
1.0007666
1.0007575
1.0007475
1.0007377
1.0007296
1.0007223
1.0007138
1.0007038
1.0006878
1.0006715
1.0006546
1.000633
1.0006092
1.0005822
1.000551
1.0005122
1.0004734
1.0004362
1.0004231
1.0004175
1.0004077
1.0003973
1.0003759
1.0003558
1.0003474
1.0003159
1.0002965
1.0003044
1.0002993
1.0003013
1.0002994
1.0002926
1.0002812
1.0002619
1.0002355
1.0001934
1.0001364
1.0000241
1.0000353
1.0001171
1.0001059
1.0000903
1.0000662
1.0000243
0.99998833
0.99989707
0.99985123
0.99989437
0.99987626
0.99983923
0.99979413
0.99970571
0.99962289
0.99932815
0.99934695
0.99964144
0.99958721
0.99956744
0.99951465
0.99936413
0.99940695
0.9995455
0.99951152
0.99948623
0.99938419
0.99943597
0.99954355
0.99954705
0.99953548
0.99954075
0.99958989
0.99959747
0.99959985
0.9999184
0.99997596
0.9999128
0.99967047
0.99979712
1.0000042
1.000053
1.0000342
1.0000767
1.0001936
1.000227
1.000281
1.0002335
1.0002675
1.0003646
1.0004054
1.0004334
1.000471
1.0003963
1.0004464
1.0005455
1.0005734
1.0006133
1.0006337
1.0006557
1.0006722
1.00068
1.0007008
1.0007217
1.0007359
1.0007503
1.0007623
1.0007707
1.0007817
1.0007788
1.0007891
1.0007863
1.0007823
1.0007764
1.0007675
1.0007579
1.0007483
1.0007401
1.0007324
1.0007231
1.0007123
1.0006955
1.0006783
1.0006604
1.000638
1.0006132
1.0005851
1.0005531
1.0005135
1.0004726
1.0004319
1.0004178
1.0004109
1.0004026
1.0003936
1.0003732
1.0003531
1.0003432
1.0003097
1.0002885
1.0002964
1.0002932
1.0002958
1.0002931
1.0002849
1.0002716
1.00025
1.0002209
1.0001749
1.0001128
0.99999562
1.0000032
1.0000895
1.0000899
1.0000799
1.0000566
1.0000126
0.99997286
0.99987526
0.99982671
0.99987155
0.99985779
0.99982155
0.99977343
0.99967825
0.99958648
0.99927242
0.99929377
0.99960447
0.99957713
0.99956025
0.99950048
0.99933999
0.99938517
0.99953933
0.99951357
0.99948549
0.99937616
0.99943199
0.9995531
0.99955777
0.99954277
0.99954668
0.99959821
0.99960405
0.99960414
0.99992102
0.99997816
0.99989098
0.99963615
0.99976811
0.99998335
1.0000325
1.0000126
1.0000583
1.0001806
1.0002155
1.0002674
1.0002175
1.0002535
1.0003551
1.0003992
1.0004277
1.0004622
1.0003853
1.0004376
1.0005416
1.0005721
1.0006142
1.0006362
1.0006593
1.0006766
1.0006852
1.0007069
1.0007287
1.0007435
1.0007583
1.0007707
1.0007793
1.0007908
1.0007886
1.0007988
1.0007964
1.0007926
1.0007869
1.0007782
1.0007687
1.0007593
1.0007508
1.0007425
1.0007325
1.0007207
1.0007032
1.0006848
1.0006657
1.0006424
1.0006166
1.0005876
1.0005549
1.000515
1.0004731
1.0004306
1.0004142
1.0004043
1.0003961
1.0003884
1.0003694
1.0003502
1.000339
1.0003044
1.0002817
1.000288
1.000285
1.0002874
1.0002838
1.0002742
1.0002591
1.0002353
1.0002035
1.0001539
1.0000881
0.99996897
0.99996947
1.0000542
1.0000627
1.0000596
1.000039
0.9999946
0.99995167
0.9998498
0.99979821
0.99984061
0.99982984
0.99979563
0.99974568
0.999645
0.99954476
0.99921904
0.99923782
0.99954537
0.99954708
0.99954033
0.99947661
0.99931091
0.99935668
0.99952001
0.99950787
0.99948031
0.99936692
0.99942473
0.99955765
0.99956914
0.99955195
0.99955408
0.99960719
0.9996122
0.99961
0.99992081
0.99996924
0.99985695
0.99960072
0.99973828
0.99995656
1.0000062
0.99998813
1.0000379
1.0001631
1.0001986
1.0002483
1.0001994
1.0002388
1.0003427
1.0003892
1.0004176
1.0004506
1.0003749
1.0004299
1.0005369
1.0005702
1.0006144
1.000638
1.0006623
1.0006807
1.0006904
1.0007128
1.0007353
1.0007509
1.0007662
1.0007791
1.0007879
1.0007998
1.0007984
1.0008084
1.0008064
1.0008029
1.0007973
1.0007888
1.0007795
1.00077
1.0007611
1.0007522
1.0007414
1.0007288
1.0007107
1.0006912
1.0006708
1.0006466
1.0006199
1.0005901
1.000557
1.0005171
1.0004753
1.0004325
1.0004131
1.0003997
1.0003905
1.0003836
1.000366
1.0003481
1.0003358
1.0003013
1.0002776
1.0002812
1.0002767
1.0002779
1.000273
1.000262
1.0002452
1.0002194
1.0001852
1.0001327
1.0000652
0.99994679
0.99994004
1.0000179
1.0000281
1.0000298
1.0000127
0.99996934
0.99992446
0.9998209
0.99976672
0.99980414
0.99979389
0.99976139
0.99971043
0.99960596
0.9994982
0.99917135
0.99918246
0.99947299
0.99949452
0.9995013
0.99943825
0.99927389
0.99932113
0.99948769
0.99948967
0.99946649
0.99935359
0.99941358
0.99955495
0.99957826
0.99956137
0.99956225
0.99961624
0.99962132
0.99961715
0.9999131
0.9999468
0.99981402
0.99956553
0.99970855
0.99992559
0.99997649
0.99996233
1.000016
1.000142
1.0001776
1.000226
1.0001809
1.0002242
1.000328
1.0003761
1.0004044
1.0004384
1.0003671
1.0004243
1.0005318
1.0005682
1.0006141
1.0006393
1.0006648
1.0006844
1.0006956
1.0007185
1.0007417
1.000758
1.0007738
1.0007872
1.0007963
1.0008087
1.0008081
1.0008176
1.000816
1.0008127
1.0008073
1.000799
1.0007898
1.0007802
1.0007709
1.0007614
1.0007499
1.0007366
1.0007181
1.0006977
1.000676
1.0006509
1.0006234
1.000593
1.0005595
1.00052
1.0004786
1.0004363
1.0004148
1.0003981
1.0003875
1.0003808
1.0003647
1.0003481
1.0003348
1.0003008
1.0002769
1.0002775
1.0002707
1.0002696
1.0002628
1.0002503
1.0002319
1.0002044
1.0001683
1.0001139
1.0000464
0.99993098
0.9999183
0.99998667
0.99999273
0.99999504
0.99997983
0.99993797
0.99989236
0.99978962
0.99973344
0.9997657
0.99975352
0.99972096
0.99966884
0.99956204
0.99944841
0.99913084
0.99912761
0.99939711
0.99942553
0.99944301
0.99938344
0.99922681
0.99927799
0.99944345
0.99945606
0.99943999
0.99933194
0.99939704
0.99954374
0.99958125
0.99956856
0.99956981
0.99962463
0.99963058
0.99962503
0.99989481
0.99991197
0.99976686
0.99953154
0.99968088
0.99989316
0.99994622
0.9999369
0.99999394
1.0001188
1.0001549
1.0002039
1.0001636
1.000211
1.0003126
1.0003617
1.0003904
1.0004275
1.0003633
1.0004214
1.0005273
1.0005665
1.0006136
1.0006405
1.0006671
1.0006881
1.0007009
1.0007242
1.0007478
1.0007649
1.0007811
1.000795
1.0008045
1.0008172
1.0008174
1.0008263
1.000825
1.0008221
1.0008168
1.0008086
1.0007995
1.0007898
1.0007802
1.0007702
1.0007582
1.0007442
1.0007255
1.0007043
1.0006816
1.0006557
1.0006275
1.0005964
1.0005626
1.0005234
1.0004827
1.0004411
1.0004182
1.0003994
1.0003874
1.0003806
1.0003659
1.0003504
1.0003359
1.0003026
1.0002794
1.0002769
1.0002678
1.0002641
1.0002553
1.0002411
1.0002211
1.0001921
1.0001546
1.0000991
1.0000329
0.99991956
0.99990844
0.99996452
0.99996262
0.99996166
0.99994565
0.99990426
0.9998584
0.99975813
0.99970058
0.99972914
0.99971282
0.99967805
0.99962388
0.99951562
0.99939858
0.99909531
0.99907507
0.99932666
0.99935098
0.99937226
0.99931607
0.99917134
0.99922708
0.99938883
0.99940777
0.99939809
0.99929989
0.99937303
0.99952341
0.99957458
0.99957002
0.99957454
0.9996312
0.99963884
0.99963278
0.99986533
0.99986881
0.99972109
0.99950046
0.9996568
0.99986192
0.99991823
0.99991376
0.9999735
1.0000961
1.0001333
1.0001847
1.0001493
1.0002003
1.0002987
1.0003485
1.0003783
1.0004192
1.0003634
1.000421
1.0005239
1.0005657
1.0006136
1.0006421
1.0006696
1.0006921
1.0007065
1.00073
1.0007539
1.0007717
1.0007883
1.0008026
1.0008124
1.0008255
1.0008265
1.0008348
1.0008336
1.0008309
1.0008257
1.0008178
1.0008088
1.0007991
1.0007893
1.0007788
1.0007664
1.0007519
1.0007331
1.0007114
1.0006877
1.000661
1.0006321
1.0006005
1.0005663
1.0005274
1.0004872
1.0004463
1.0004227
1.0004023
1.0003894
1.0003826
1.0003694
1.0003547
1.0003389
1.0003063
1.0002837
1.0002791
1.000268
1.0002619
1.000251
1.0002351
1.0002137
1.0001835
1.0001448
1.0000889
1.0000244
0.99991419
0.9999065
0.9999512
0.99994099
0.99993478
0.99991557
0.99987303
0.9998266
0.99972925
0.99967178
0.99969722
0.99967533
0.99963671
0.99957955
0.99947027
0.99935228
0.99906146
0.9990366
0.99926921
0.99928119
0.99929959
0.9992449
0.99911376
0.99916989
0.9993261
0.99934805
0.99934287
0.99925628
0.99933923
0.99949363
0.99955617
0.99956185
0.99957352
0.99963424
0.99964452
0.99963927
0.99982705
0.99982282
0.99968207
0.99947456
0.99963752
0.99983385
0.99989416
0.99989496
0.99995645
1.0000762
1.0001151
1.0001695
1.0001391
1.0001928
1.0002875
1.0003383
1.0003695
1.0004141
1.0003665
1.0004229
1.000522
1.000566
1.0006143
1.0006443
1.0006727
1.0006965
1.0007125
1.0007361
1.0007601
1.0007786
1.0007955
1.0008102
1.0008204
1.0008338
1.0008357
1.0008433
1.000842
1.0008395
1.0008345
1.0008267
1.0008179
1.0008082
1.0007983
1.0007875
1.0007748
1.0007599
1.0007409
1.0007188
1.0006943
1.000667
1.0006375
1.0006053
1.0005707
1.0005319
1.0004921
1.0004517
1.0004276
1.0004064
1.0003928
1.0003861
1.0003744
1.0003603
1.0003432
1.0003113
1.0002894
1.000283
1.0002705
1.0002623
1.0002496
1.0002322
1.0002095
1.0001782
1.0001388
1.0000829
1.0000202
0.99991402
0.99990961
0.99994461
0.99992773
0.99991612
0.99989258
0.99984777
0.99980017
0.99970523
0.99965019
0.99967136
0.9996432
0.99960016
0.99953956
0.99942962
0.99931201
0.99903365
0.99901191
0.99922799
0.99922234
0.9992345
0.99917921
0.99906139
0.9991116
0.99925961
0.99928186
0.99927923
0.9992033
0.99929456
0.99945366
0.99952537
0.99954147
0.99956396
0.99963082
0.99964565
0.99964283
0.99978499
0.99977942
0.99965128
0.99945645
0.99962352
0.99981031
0.9998745
0.99988153
0.99994371
1.0000603
1.0001012
1.0001582
1.0001336
1.0001884
1.0002795
1.0003315
1.0003643
1.0004121
1.0003717
1.0004264
1.0005214
1.0005675
1.0006161
1.0006474
1.0006765
1.0007016
1.000719
1.0007426
1.0007665
1.0007856
1.0008028
1.000818
1.0008285
1.0008421
1.0008449
1.0008521
1.0008506
1.0008482
1.0008432
1.0008356
1.000827
1.0008174
1.0008074
1.0007964
1.0007834
1.0007682
1.0007491
1.0007267
1.0007015
1.0006737
1.0006436
1.0006108
1.0005758
1.0005369
1.0004974
1.0004575
1.0004328
1.0004111
1.0003972
1.0003908
1.0003804
1.0003667
1.0003485
1.0003175
1.0002963
1.0002881
1.0002745
1.0002646
1.0002504
1.0002318
1.000208
1.0001759
1.0001358
1.0000804
1.0000194
0.99991784
0.99991599
0.99994279
0.99992099
0.99990458
0.99987671
0.99982937
0.99978024
0.99968708
0.99963688
0.99965141
0.99961715
0.99957005
0.99950608
0.99939588
0.9992788
0.99901583
0.9989967
0.99919661
0.99917742
0.99918181
0.99912464
0.99901851
0.99905915
0.99919581
0.99921549
0.99921369
0.99914565
0.99924183
0.99940379
0.99948241
0.99950771
0.99954309
0.99961825
0.99963997
0.99964125
0.99974503
0.99974218
0.99962831
0.99944657
0.99961427
0.99979186
0.99985991
0.9998727
0.99993517
1.0000485
1.0000917
1.0001507
1.0001319
1.0001868
1.0002746
1.0003279
1.0003621
1.0004124
1.0003784
1.0004312
1.0005222
1.00057
1.0006187
1.0006513
1.0006811
1.0007071
1.0007258
1.0007495
1.0007734
1.0007929
1.0008105
1.000826
1.0008369
1.0008507
1.0008544
1.0008612
1.0008594
1.0008571
1.0008522
1.0008448
1.0008363
1.0008268
1.0008167
1.0008056
1.0007924
1.000777
1.0007578
1.0007351
1.0007094
1.0006811
1.0006504
1.000617
1.0005815
1.0005425
1.0005031
1.0004637
1.0004382
1.0004163
1.0004024
1.0003963
1.0003873
1.0003737
1.0003546
1.0003246
1.000304
1.0002942
1.0002797
1.0002684
1.000253
1.0002334
1.0002086
1.0001759
1.0001354
1.0000806
1.0000211
0.99992461
0.99992449
0.99994433
0.99991864
0.9998982
0.99986653
0.99981697
0.99976625
0.99967483
0.99963011
0.99963672
0.99959705
0.99954653
0.99947952
0.99936943
0.99925259
0.9990063
0.99899036
0.99917156
0.9991442
0.99914169
0.99908251
0.9989861
0.99901669
0.99914053
0.99915507
0.99915271
0.99908954
0.99918664
0.99934649
0.99942905
0.99946138
0.99950941
0.99959441
0.99962478
0.99963217
0.99971146
0.99971246
0.99961196
0.99944381
0.99960914
0.99977817
0.99984963
0.99986832
0.99993019
1.0000405
1.0000859
1.0001464
1.0001328
1.0001875
1.0002723
1.0003269
1.0003625
1.0004145
1.0003867
1.0004369
1.0005241
1.0005735
1.0006222
1.0006559
1.0006864
1.0007133
1.0007331
1.0007568
1.0007806
1.0008007
1.0008185
1.0008345
1.0008457
1.0008597
1.0008643
1.0008708
1.0008687
1.0008664
1.0008616
1.0008543
1.000846
1.0008366
1.0008265
1.0008153
1.0008019
1.0007863
1.000767
1.0007441
1.000718
1.0006893
1.0006579
1.000624
1.000588
1.0005488
1.0005094
1.0004703
1.0004438
1.0004218
1.0004082
1.0004027
1.0003947
1.0003813
1.0003616
1.0003326
1.0003123
1.0003012
1.0002858
1.0002733
1.0002569
1.0002364
1.0002109
1.0001778
1.0001371
1.0000829
1.0000247
0.9999336
0.99993451
0.99994825
0.9999191
0.9998953
0.99986048
0.9998092
0.99975697
0.99966772
0.99962728
0.99962686
0.99958218
0.9995288
0.99945911
0.99934939
0.99923267
0.99900258
0.99899128
0.99915301
0.99911939
0.99911186
0.99905136
0.99896341
0.99898471
0.99909615
0.99910432
0.99910079
0.99904069
0.99913454
0.99928656
0.99936921
0.99940569
0.99946368
0.99955822
0.99959809
0.99961338
0.99968581
0.9996902
0.99960176
0.99944591
0.99960746
0.99976869
0.99984313
0.99986752
0.99992807
1.0000355
1.0000831
1.0001448
1.0001359
1.0001901
1.0002723
1.000328
1.0003648
1.000418
1.0003965
1.0004445
1.000527
1.0005778
1.0006265
1.0006613
1.0006923
1.00072
1.0007409
1.0007646
1.0007884
1.0008088
1.0008269
1.0008433
1.0008549
1.0008691
1.0008747
1.0008809
1.0008785
1.0008761
1.0008715
1.0008644
1.0008563
1.0008469
1.0008368
1.0008255
1.000812
1.0007962
1.0007768
1.0007537
1.0007272
1.0006981
1.0006662
1.0006317
1.0005951
1.0005557
1.0005162
1.0004773
1.0004497
1.0004276
1.0004146
1.0004097
1.0004027
1.0003893
1.0003693
1.0003414
1.0003214
1.000309
1.0002928
1.0002792
1.0002619
1.0002408
1.0002146
1.0001813
1.0001404
1.0000871
1.0000298
0.99994731
0.99994556
0.99995375
0.99992125
0.99989477
0.99985739
0.99980486
0.9997512
0.99966481
0.99962686
0.99962081
0.99957144
0.99951576
0.99944366
0.99933449
0.99921787
0.99900315
0.99899757
0.99913985
0.99910127
0.99908995
0.99902891
0.99894789
0.99896314
0.99906227
0.99906443
0.99905963
0.99900205
0.99908939
0.99922987
0.99930865
0.99934603
0.99940938
0.99951066
0.99955943
0.99958345
0.99966761
0.99967427
0.99959671
0.99945181
0.99960871
0.9997628
0.99983981
0.99986954
0.9999283
1.0000332
1.0000828
1.0001451
1.0001409
1.0001943
1.000274
1.0003307
1.0003686
1.0004227
1.0004076
1.0004534
1.0005308
1.0005828
1.0006316
1.0006673
1.0006989
1.0007273
1.0007491
1.0007729
1.0007966
1.0008175
1.0008359
1.0008527
1.0008648
1.0008791
1.0008855
1.0008915
1.0008889
1.0008864
1.0008818
1.000875
1.0008671
1.0008579
1.0008478
1.0008362
1.0008226
1.0008067
1.0007872
1.000764
1.0007371
1.0007076
1.0006753
1.0006402
1.0006031
1.0005634
1.0005237
1.000485
1.0004561
1.0004339
1.0004217
1.0004174
1.0004112
1.0003979
1.0003777
1.0003509
1.000331
1.0003175
1.0003005
1.0002859
1.0002679
1.0002462
1.0002196
1.0001861
1.0001451
1.0000927
1.0000363
0.99996191
0.99995719
0.99995991
0.99992473
0.99989602
0.99985644
0.99980304
0.99974818
0.99966509
0.99962783
0.99961722
0.99956428
0.99950642
0.99943199
0.99932352
0.99920712
0.99900703
0.99900682
0.9991305
0.99908814
0.99907418
0.99901306
0.99893767
0.99894958
0.99903696
0.99903454
0.99902846
0.99897331
0.99905368
0.99918072
0.99925287
0.99928852
0.99935216
0.99945539
0.99951053
0.99954257
0.99965547
0.99966326
0.99959532
0.99946151
0.99961251
0.99975993
0.99983932
0.99987362
0.99993053
1.0000329
1.0000841
1.0001469
1.000148
1.0001997
1.0002772
1.0003349
1.0003737
1.0004284
1.0004197
1.000463
1.0005355
1.0005883
1.0006373
1.0006739
1.000706
1.0007352
1.0007578
1.0007817
1.0008054
1.0008266
1.0008453
1.0008626
1.0008753
1.0008897
1.0008968
1.0009027
1.0008999
1.0008973
1.0008928
1.0008862
1.0008785
1.0008696
1.0008595
1.0008478
1.000834
1.0008179
1.0007986
1.000775
1.0007477
1.0007178
1.0006851
1.0006495
1.0006118
1.0005718
1.000532
1.0004933
1.0004631
1.0004407
1.0004293
1.0004258
1.0004202
1.0004069
1.0003869
1.0003612
1.0003412
1.0003266
1.000309
1.0002935
1.0002747
1.0002526
1.0002257
1.0001921
1.0001511
1.0000995
1.000044
0.99997702
0.99996925
0.99996621
0.99992942
0.99989863
0.99985711
0.99980312
0.99974737
0.99966773
0.99963035
0.99961463
0.99955998
0.99949986
0.99942315
0.99931555
0.9991996
0.99901704
0.99901777
0.99912375
0.99907897
0.99906267
0.99900236
0.99893147
0.99894174
0.99901847
0.99901233
0.99900539
0.99895296
0.99902691
0.99914076
0.99920532
0.9992379
0.99929792
0.99939802
0.99945556
0.99949323
0.99964801
0.9996561
0.9995968
0.99947482
0.99961881
0.99975969
0.99984121
0.99987922
0.99993451
1.0000344
1.0000867
1.0001503
1.000157
1.0002067
1.0002817
1.0003402
1.00038
1.0004352
1.0004329
1.0004734
1.000541
1.0005944
1.0006436
1.000681
1.0007137
1.0007436
1.0007674
1.0007914
1.0008148
1.0008364
1.0008555
1.0008732
1.0008864
1.0009008
1.0009086
1.0009145
1.0009115
1.0009088
1.0009043
1.0008979
1.0008905
1.0008818
1.0008718
1.0008602
1.0008463
1.00083
1.0008107
1.000787
1.000759
1.0007287
1.0006956
1.0006595
1.0006213
1.0005809
1.0005409
1.0005022
1.0004707
1.000448
1.0004376
1.0004347
1.0004296
1.0004165
1.0003967
1.000372
1.000352
1.0003363
1.0003182
1.0003018
1.0002825
1.00026
1.0002328
1.0001992
1.0001583
1.0001075
1.000053
0.99999246
0.99998152
0.99997265
0.99993506
0.9999023
0.99985907
0.99980463
0.99974836
0.99967206
0.99963458
0.99961311
0.99955711
0.99949517
0.99941652
0.99930997
0.99919482
0.99902932
0.9990302
0.99911944
0.99907288
0.99905454
0.99899538
0.99892833
0.99893795
0.99900522
0.99899592
0.99898862
0.99893916
0.9990075
0.99910956
0.99916688
0.99919624
0.99925086
0.99934417
0.9994001
0.99943998
0.99964431
0.99965217
0.99960086
0.99949135
0.99962807
0.99976172
0.99984505
0.99988609
0.99994004
1.0000374
1.0000906
1.0001552
1.0001673
1.0002149
1.0002872
1.0003464
1.0003873
1.0004429
1.0004466
1.0004848
1.000548
1.0006009
1.0006504
1.0006886
1.0007219
1.0007527
1.0007775
1.0008019
1.0008252
1.000847
1.0008664
1.0008844
1.0008979
1.0009125
1.0009209
1.0009268
1.0009237
1.0009209
1.0009165
1.0009103
1.0009031
1.0008946
1.0008848
1.0008732
1.0008592
1.0008429
1.0008235
1.0007996
1.0007712
1.0007404
1.0007068
1.0006702
1.0006315
1.0005908
1.0005506
1.0005117
1.0004791
1.000456
1.0004465
1.0004443
1.0004396
1.0004265
1.0004071
1.0003835
1.0003634
1.0003467
1.0003281
1.0003109
1.0002911
1.0002683
1.0002409
1.0002072
1.0001664
1.0001163
1.0000635
1.0000081
0.99999411
0.99997954
0.99994107
0.99990675
0.99986208
0.99980729
0.99975073
0.9996776
0.99963962
0.99961301
0.99955515
0.99949176
0.99941167
0.99930626
0.9991922
0.99904286
0.99904343
0.99911712
0.99906928
0.99904915
0.99899116
0.9989277
0.99893685
0.9989958
0.99898405
0.99897661
0.99893031
0.99899378
0.99908568
0.99913677
0.99916335
0.99921253
0.99929751
0.99934915
0.99938807
0.9996438
0.9996512
0.99960729
0.9995105
0.9996401
0.99976576
0.99985056
0.99989428
0.99994726
1.0000417
1.0000957
1.0001615
1.0001786
1.0002243
1.0002942
1.0003535
1.0003956
1.0004519
1.0004609
1.0004972
1.0005563
1.0006086
1.0006579
1.000697
1.000731
1.0007624
1.0007883
1.000813
1.0008363
1.0008582
1.0008778
1.0008961
1.00091
1.0009247
1.0009336
1.0009396
1.0009365
1.0009335
1.0009293
1.0009233
1.0009163
1.000908
1.0008983
1.0008868
1.0008728
1.0008564
1.0008369
1.000813
1.0007842
1.000753
1.0007188
1.0006818
1.0006425
1.0006015
1.0005609
1.0005219
1.0004883
1.0004647
1.0004562
1.0004545
1.00045
1.0004371
1.0004181
1.0003954
1.0003752
1.0003577
1.0003387
1.0003208
1.0003006
1.0002774
1.0002499
1.0002161
1.0001755
1.0001259
1.0000748
1.0000238
1.0000066
0.99998708
0.99994749
0.99991177
0.99986588
0.99981085
0.99975417
0.99968401
0.99964504
0.99961379
0.99955415
0.99948935
0.99940817
0.99930403
0.99919142
0.99905729
0.99905692
0.99911642
0.99906779
0.99904582
0.99898897
0.99892905
0.99893758
0.99898927
0.99897578
0.99896808
0.99892523
0.99898442
0.99906759
0.99911354
0.99913796
0.99918251
0.99925929
0.9993056
0.99934159
0.99964598
0.99965322
0.99961583
0.99953166
0.99965355
0.99977166
0.99985751
0.99990363
0.99995609
1.0000474
1.000102
1.0001688
1.0001909
1.0002352
1.0003024
1.0003618
1.0004049
1.0004617
1.0004754
1.0005104
1.000566
1.0006174
1.0006665
1.0007061
1.0007408
1.0007727
1.0007995
1.0008246
1.0008478
1.0008699
1.0008897
1.0009082
1.0009224
1.0009372
1.0009467
1.0009529
1.0009498
1.0009468
1.0009426
1.0009368
1.00093
1.0009219
1.0009124
1.0009009
1.0008869
1.0008704
1.0008509
1.0008269
1.000798
1.0007664
1.0007316
1.000694
1.0006542
1.0006128
1.000572
1.0005328
1.0004982
1.0004742
1.0004665
1.0004653
1.0004609
1.0004481
1.0004296
1.0004077
1.0003875
1.0003694
1.0003499
1.0003315
1.0003108
1.0002874
1.0002596
1.0002258
1.0001853
1.0001364
1.0000871
1.0000393
1.0000188
0.99999511
0.99995449
0.99991725
0.99987027
0.99981511
0.99975844
0.99969102
0.99965058
0.99961517
0.99955391
0.99948772
0.99940574
0.99930294
0.99919215
0.99907216
0.99907081
0.99911693
0.99906802
0.99904402
0.99898828
0.99893191
0.99893983
0.99898493
0.9989703
0.99896211
0.99892296
0.99897839
0.99905396
0.99909575
0.99911859
0.99915949
0.99922895
0.99927008
0.99930247
0.99965044
0.99965794
0.99962638
0.99955446
0.99966835
0.99977987
0.99986603
0.99991405
0.99996633
1.0000547
1.0001099
1.0001774
1.000204
1.0002474
1.0003116
1.0003709
1.0004149
1.0004723
1.0004903
1.0005243
1.0005769
1.0006271
1.0006757
1.0007159
1.000751
1.0007835
1.0008109
1.0008364
1.0008598
1.000882
1.000902
1.0009206
1.0009353
1.0009502
1.0009602
1.0009666
1.0009637
1.0009606
1.0009564
1.0009508
1.0009443
1.0009364
1.000927
1.0009156
1.0009016
1.0008851
1.0008655
1.0008414
1.0008123
1.0007804
1.0007452
1.0007071
1.0006668
1.0006249
1.0005838
1.0005443
1.0005091
1.0004845
1.0004775
1.0004768
1.0004723
1.0004597
1.0004416
1.0004205
1.0004002
1.0003816
1.0003619
1.0003429
1.0003218
1.0002981
1.00027
1.0002362
1.0001956
1.0001477
1.0000999
1.0000545
1.0000308
1.0000035
0.99996195
0.99992308
0.99987511
0.99981988
0.9997633
0.99969838
0.99965607
0.99961684
0.99955421
0.99948668
0.99940415
0.9993027
0.99919492
0.99908755
0.99908521
0.99911838
0.99906943
0.9990431
0.99898877
0.99893599
0.99894356
0.9989823
0.99896679
0.99895804
0.99892281
0.99897489
0.99904377
0.99908218
0.99910393
0.99914204
0.9992052
0.99924183
0.9992708
0.99965703
0.99966491
0.99963902
0.99957875
0.99968452
0.99978993
0.99987589
0.99992561
0.99997831
1.0000634
1.0001192
1.0001869
1.0002177
1.0002606
1.0003221
1.0003807
1.0004254
1.0004831
1.0005055
1.0005387
1.0005885
1.0006376
1.0006856
1.0007261
1.0007617
1.0007946
1.0008226
1.0008486
1.0008721
1.0008944
1.0009145
1.0009334
1.0009485
1.0009635
1.0009739
1.0009806
1.000978
1.0009749
1.0009708
1.0009654
1.000959
1.0009513
1.0009421
1.0009307
1.0009167
1.0009002
1.0008806
1.0008565
1.0008272
1.000795
1.0007595
1.0007209
1.00068
1.0006378
1.0005962
1.0005565
1.0005207
1.0004957
1.0004893
1.0004888
1.0004842
1.0004717
1.0004541
1.0004336
1.0004134
1.0003944