/*--------------------------------*- C++ -*----------------------------------*\
| =========                 |                                                 |
| \\      /  F ield         | OpenFOAM: The Open Source CFD Toolbox           |
|  \\    /   O peration     | Version:  v2006                                 |
|   \\  /    A nd           | Website:  www.openfoam.com                      |
|    \\/     M anipulation  |                                                 |
\*---------------------------------------------------------------------------*/
FoamFile
{
    version     2.0;
    format      ascii;
    class       volVectorField;
    location    "4000";
    object      U;
}
// * * * * * * * * * * * * * * * * * * * * * * * * * * * * * * * * * * * * * //

dimensions      [0 1 -1 0 0 0 0];


internalField   nonuniform List<vector> 
103740
(
(0.0028014059 0.00079814365 1.7493256e-19)
(0.0015536244 0.00044853129 1.8472897e-19)
(0.0013475459 0.00040232457 3.8921797e-19)
(0.0052808814 0.0020172336 2.482222e-23)
(0.0054908503 0.003369383 -2.006222e-19)
(0.0034643913 0.0021467073 0)
(0.0028380608 0.0017757454 0)
(0.0034596879 0.0021619624 5.6761772e-23)
(0.0037403279 0.0028497904 -5.7052786e-23)
(0.0027234718 0.0021467208 0)
(0.0026818192 0.0021068024 6.2523324e-23)
(0.0019359382 0.0015484699 -2.6840526e-19)
(0.0027962784 0.0022188641 2.8036243e-19)
(0.0029197395 0.0029305259 -1.3752436e-19)
(0.0021715788 0.0022799458 -2.8440355e-19)
(0.0019075449 0.0020110179 1.4891449e-19)
(0.0019026344 0.0019973815 1.5594095e-19)
(0.0012070798 0.0013070719 -1.6277966e-19)
(0.0022568089 0.0024104327 -8.26441e-23)
(0.0017454555 0.00295476 0)
(0.0010596403 0.0018377756 0)
(0.0010357283 0.0017843309 1.5899682e-22)
(0.00082329101 0.0014324505 8.4813048e-20)
(0.00078334444 0.0013589198 1.7295883e-22)
(0.00068697676 0.0011960813 -3.6014738e-22)
(0.00061637001 0.0010760054 -1.9164552e-19)
(0.00061902966 0.0011100028 0)
(0.00047013241 0.0010003032 -1.9082698e-22)
(0.0003445454 0.00074141896 1.0221684e-19)
(0.00030398847 0.00065156854 0)
(0.00023131714 0.00049815998 0)
(0.00017890281 0.00038402502 -1.1540456e-19)
(0.00011578141 0.00024904741 -1.199166e-19)
(3.9620595e-05 8.3415032e-05 6.2211675e-20)
(-4.1760119e-05 -8.9651465e-05 -6.4293545e-20)
(-6.4633688e-05 -0.00030591242 0)
(-9.8621681e-05 -0.0004632524 -2.3488356e-22)
(-0.00012295368 -0.00058632118 4.8748313e-22)
(-0.00015815715 -0.00074984701 -3.2575198e-20)
(-0.00018408423 -0.00088051821 -3.3427922e-20)
(-0.0002204798 -0.0010538753 0)
(-0.00025139563 -0.0012077312 -3.55497e-20)
(-0.00029282526 -0.0014093746 3.6262546e-20)
(-0.00032937604 -0.0015913749 2.9290713e-22)
(-0.00038661511 -0.0018738099 -3.8368888e-20)
(-0.00043201669 -0.0021032476 -3.9164098e-20)
(-0.0005309345 -0.0027220957 -7.9307221e-20)
(-0.00027997101 -0.002647487 -3.0991619e-22)
(-0.00024066085 -0.0024156105 2.0267414e-20)
(-0.00028214043 -0.0027762762 2.0785395e-20)
(-0.00029625625 -0.002961651 2.0752388e-20)
(-0.00032587015 -0.0032833176 2.1051872e-20)
(-0.00036159375 -0.0036508202 2.127724e-20)
(-0.00039856461 -0.0041215837 8.3331612e-23)
(-0.00047580755 -0.005042643 -2.1317375e-20)
(-0.00014655489 -0.0061231494 1.0711467e-20)
(0.00044927583 -0.0045626826 4.2609269e-20)
(0.0003580614 -0.0033860024 -2.13669e-20)
(0.00041054261 -0.0039442125 0)
(0.00042139197 -0.003999698 2.1103696e-20)
(0.00044699414 -0.0042120103 0)
(0.000501795 -0.0046386385 0)
(0.00051891117 -0.0047926736 1.9977852e-20)
(0.00071495423 -0.0060449058 -1.9553607e-20)
(0.0011021124 -0.0053487681 3.9517765e-20)
(0.00080612705 -0.003955304 -3.9194438e-20)
(0.00093628478 -0.0044891718 2.9745026e-22)
(0.00093554734 -0.0044848078 2.9038429e-22)
(0.00098222665 -0.0046723529 -3.9607686e-26)
(0.0010318792 -0.0048788996 -2.7496079e-22)
(0.0010883304 -0.0051146805 3.4133727e-20)
(0.0011679648 -0.0054429833 0)
(0.0012597527 -0.0058269899 6.3582287e-20)
(0.0014190895 -0.0064697588 -3.0523487e-20)
(0.001667138 -0.007464467 0)
(0.0026750764 -0.0095171631 -5.9217124e-20)
(0.00282865 -0.0064860827 2.446535e-22)
(0.0013177428 -0.0031951641 6.060409e-20)
(0.0019615036 -0.0044088455 -2.2912453e-22)
(0.0019298957 -0.0043541195 -1.127018e-19)
(0.0020450598 -0.0045821583 -1.0871912e-19)
(0.0023036308 -0.0051075022 2.0337958e-22)
(0.0024031258 -0.0053343913 4.4299234e-25)
(0.0032150833 -0.00695822 0)
(0.0035243449 -0.0062409882 9.8055554e-20)
(0.0023200977 -0.0041193951 -1.9051532e-19)
(0.0026966004 -0.0046341032 1.831833e-19)
(0.0029039653 -0.0049681864 0)
(0.0031414884 -0.0053532208 -4.0230605e-25)
(0.0037289935 -0.0062853878 0)
(0.0041654074 -0.0070033 0)
(0.0068440217 -0.010544513 7.4042383e-23)
(0.0059602199 -0.0063293354 -1.6259154e-22)
(0.00071165991 -0.0010263195 1.6087224e-19)
(0.0034589091 -0.0036217896 1.8629126e-26)
(0.003414205 -0.0036124781 7.1789364e-23)
(0.004433408 -0.0046187338 5.2991127e-25)
(0.0062060972 -0.0058659015 1.7541974e-24)
(0.0040899709 -0.003227888 2.76945e-19)
(0.0016151525 -0.0013434925 -2.6584302e-19)
(0.003220633 -0.0024922887 6.1891017e-23)
(0.0037611382 -0.0029059092 2.4131592e-19)
(0.00521102 -0.0036449738 0)
(0.0028599308 -0.0016986059 2.3132247e-19)
(0.00085225821 -0.00054477082 -2.2125219e-19)
(0.0018831267 -0.0011059682 -4.2063422e-19)
(0.0025863714 -0.001500697 4.8780692e-23)
(0.0024016259 -0.0012637249 -2.3549189e-23)
(0.0014988735 -0.00080284622 3.6797589e-19)
(0.0021442931 -0.0011219878 -2.1468076e-23)
(0.0024692651 -0.0012875519 0)
(0.0082857455 0.0023654507 0)
(0.0050418982 0.0014262079 6.6323388e-26)
(0.0052094299 0.0015549036 -6.1103172e-19)
(0.015409957 0.0060291687 2.9938441e-26)
(0.015408326 0.0096398552 3.1332346e-19)
(0.010123412 0.0063064518 0)
(0.0086173327 0.0054060362 3.4869176e-19)
(0.010234739 0.0064603174 -1.778424e-22)
(0.010648935 0.0082672515 8.9408962e-23)
(0.0080161324 0.0063689876 9.3431535e-23)
(0.007773791 0.0061849183 -9.8152465e-23)
(0.0060235055 0.00480317 -1.8758942e-25)
(0.008225574 0.0066115122 -1.0719727e-22)
(0.0082635245 0.0084871836 -2.152962e-19)
(0.0062937451 0.0066986869 2.2316677e-19)
(0.005589711 0.0059680015 -2.340462e-19)
(0.0054709569 0.0058342824 -4.8961782e-19)
(0.0038930996 0.0041622701 -2.5577164e-19)
(0.0064592051 0.0070406447 1.2942467e-22)
(0.0048109954 0.008475394 -2.2874795e-22)
(0.0030800632 0.0054307246 0)
(0.0029461808 0.0052223337 -1.2862368e-19)
(0.0023889105 0.0042360188 2.6129314e-22)
(0.0022545141 0.0040006408 0)
(0.001988965 0.0035286293 -2.8400228e-22)
(0.0017962793 0.0031902881 5.9122423e-22)
(0.0017732046 0.0032494468 -3.0464669e-22)
(0.0013420777 0.0029205769 -3.0811632e-19)
(0.0010027843 0.00218749 0)
(0.00087704981 0.001912365 -1.684662e-19)
(0.00067478013 0.0014660432 3.42278e-22)
(0.00052330849 0.0011281468 1.8205938e-19)
(0.00034526666 0.00073155874 -1.8962216e-19)
(0.00013193193 0.00025027597 -1.9684677e-19)
(-9.5231165e-05 -0.00024772806 3.9725307e-22)
(-0.0001628075 -0.00087429623 0)
(-0.00025964119 -0.0013386954 -4.7132324e-20)
(-0.00033035088 -0.0017019523 4.8846704e-20)
(-0.00042526002 -0.0021709973 0)
(-0.00050079501 -0.002555794 5.2190197e-20)
(-0.00059917362 -0.0030488779 -5.3786446e-20)
(-0.0006872651 -0.0034955709 0)
(-0.00079948983 -0.004063573 -5.7193037e-20)
(-0.00090123133 -0.0045864738 0)
(-0.0010527969 -0.0053632366 5.9732979e-20)
(-0.0011706533 -0.006015454 6.0728512e-20)
(-0.0014212652 -0.0076220059 6.1576099e-20)
(-0.00078101001 -0.0076225012 -3.0685748e-20)
(-0.00068614319 -0.0070977369 -3.1350991e-20)
(-0.00075607826 -0.007945478 -2.4850118e-22)
(-0.00080948707 -0.0085033094 2.513281e-22)
(-0.0008846323 -0.0093587208 3.2393767e-20)
(-0.00097444777 -0.010354596 -3.2360098e-20)
(-0.0010591016 -0.011604699 -3.2502267e-20)
(-0.0012450546 -0.013906722 6.4109408e-20)
(-0.000439545 -0.016707307 -1.6131867e-20)
(0.0012163847 -0.013519217 -6.4072885e-20)
(0.0010692571 -0.010485575 1.9072148e-22)
(0.001204531 -0.011414134 -1.2676376e-22)
(0.0012266175 -0.011658803 2.5131555e-22)
(0.0012939274 -0.012188213 -2.4795745e-22)
(0.0014124457 -0.013272694 0)
(0.0014923883 -0.013779457 -3.0962863e-20)
(0.0018794091 -0.016786618 6.0011347e-20)
(0.0030309648 -0.015464902 -5.9546928e-20)
(0.0024568618 -0.012194261 4.6271494e-22)
(0.0026706367 -0.013055564 -5.8654566e-20)
(0.0026833713 -0.01314248 0)
(0.0027842173 -0.013604835 0)
(0.0029000909 -0.014164779 -4.2096837e-22)
(0.0030355673 -0.014813492 5.2684112e-20)
(0.0032224315 -0.015703152 -3.9519379e-22)
(0.0034468536 -0.016761449 -4.8071796e-20)
(0.003820727 -0.018474446 9.3924866e-20)
(0.0044187467 -0.021102471 -3.5056588e-22)
(0.0067781723 -0.026259706 0)
(0.0081626474 -0.019402241 -9.3994833e-20)
(0.0048080646 -0.011046981 9.3397412e-20)
(0.0057607217 -0.013085638 0)
(0.0057360243 -0.013075748 0)
(0.0059878517 -0.013618302 0)
(0.0065861867 -0.014977429 0)
(0.0069199724 -0.015682415 1.5411105e-19)
(0.0087570975 -0.019845227 1.4643726e-19)
(0.010004998 -0.018240479 0)
(0.0073939618 -0.012977798 1.4715069e-19)
(0.0079315667 -0.013819037 -1.4225773e-19)
(0.0084453454 -0.014721953 6.7060944e-26)
(0.0090668713 -0.015783453 -2.6161128e-19)
(0.010498739 -0.01826623 -2.4987667e-19)
(0.011747997 -0.0203133 0)
(0.018045516 -0.029422544 0)
(0.017495144 -0.019114852 0)
(0.0049408077 -0.0052494495 -2.5003302e-19)
(0.010180431 -0.010709978 0)
(0.010419499 -0.011008758 -1.1166186e-22)
(0.012921194 -0.013604511 4.3406866e-19)
(0.017461048 -0.016932132 4.2732571e-19)
(0.012875459 -0.010223518 1.0448716e-22)
(0.0063286141 -0.0049156473 4.1643459e-19)
(0.0097567263 -0.0075281768 9.6770853e-23)
(0.011353494 -0.0087691371 -6.5733665e-25)
(0.015085886 -0.010725171 -3.6694894e-19)
(0.0094267249 -0.0055931272 -7.2130271e-19)
(0.0038165062 -0.0022138905 3.4848239e-19)
(0.0061148669 -0.0035121587 -3.4121331e-25)
(0.0080375364 -0.0046418252 3.1469143e-19)
(0.0076132778 -0.0039937843 -1.4832196e-22)
(0.0052259171 -0.0027128806 -5.8072964e-19)
(0.0067777736 -0.0035084688 -2.9984124e-25)
(0.0077028871 -0.0039953242 5.2386604e-19)
(0.013830614 0.0039355387 -2.9302406e-19)
(0.0091042465 0.0025657755 -3.0953983e-19)
(0.010395264 0.0031736998 3.214682e-19)
(0.025356447 0.010041604 -8.1001452e-23)
(0.024641251 0.015321436 -6.5806987e-19)
(0.016758367 0.01036179 0)
(0.014675786 0.0092045752 -3.6882077e-19)
(0.017061179 0.010777789 0)
(0.017283215 0.013359416 0)
(0.013343379 0.010549994 -4.0369536e-19)
(0.012812174 0.010153313 -1.0374528e-22)
(0.01043594 0.0083332115 4.4651881e-19)
(0.013669533 0.011008383 -1.1286676e-22)
(0.013407348 0.013695777 2.2727873e-19)
(0.010395002 0.010990605 2.2983911e-22)
(0.0092953737 0.0098892838 -2.4782195e-19)
(0.0089932937 0.0095411704 2.5883011e-19)
(0.0068792912 0.0073878731 -3.297585e-25)
(0.010559034 0.011504947 0)
(0.0078015603 0.013563046 2.4717501e-19)
(0.0051463897 0.0089660911 0)
(0.0048562617 0.0085439281 0)
(0.0039809108 0.0070077688 -3.2191304e-25)
(0.0037368811 0.0065903727 0)
(0.0033069713 0.0058281441 0)
(0.0029954831 0.0052959727 2.0564625e-25)
(0.0029283276 0.0053290521 1.6619994e-19)
(0.0022286278 0.0047764632 3.2690573e-19)
(0.0016811566 0.0036152981 1.7177724e-19)
(0.0014623784 0.0031451607 1.7871541e-19)
(0.0011326246 0.0024180272 7.2930585e-22)
(0.00088094898 0.0018572456 -7.5942017e-22)
(0.0005900741 0.001203926 2.0255552e-19)
(0.00024521615 0.00041910994 1.0497221e-19)
(-0.00012194937 -0.00038691433 1.0844822e-19)
(-0.00024251371 -0.0014107311 4.8798199e-20)
(-0.00040730673 -0.0021788708 -2.9040383e-26)
(-0.00052377041 -0.0027820628 -5.197337e-20)
(-0.00067795695 -0.003540472 -1.2423108e-26)
(-0.00080204163 -0.0041774793 5.5360975e-20)
(-0.00095878218 -0.0049695389 5.7400095e-20)
(-0.0011003654 -0.0056997868 5.9365044e-20)
(-0.0012767869 -0.0066043092 -4.7109915e-22)
(-0.0014363122 -0.0074509367 4.8077827e-22)
(-0.0016676225 -0.0086610535 -6.2622232e-20)
(-0.0018380308 -0.0097067189 -4.9511001e-22)
(-0.0022179526 -0.012078164 -5.010411e-22)
(-0.0012927314 -0.012354663 3.251462e-20)
(-0.001130381 -0.011718275 -3.2676714e-20)
(-0.0011954499 -0.012858371 2.5804623e-22)
(-0.0012748212 -0.013773895 -2.6023663e-22)
(-0.0013762572 -0.015071154 2.6109844e-22)
(-0.0014971988 -0.016595505 -2.6083101e-22)
(-0.0015937456 -0.018487256 -1.2910834e-22)
(-0.0018060438 -0.021769041 -3.2355437e-20)
(-0.00067319807 -0.025875068 8.2505342e-21)
(0.0018515719 -0.022314531 3.2259817e-20)
(0.0017846004 -0.018035987 0)
(0.0019955098 -0.01873203 0)
(0.0020421282 -0.019145747 3.3016512e-20)
(0.0021586789 -0.019905676 0)
(0.0023400331 -0.021459576 4.9866923e-22)
(0.0025129464 -0.022344079 6.1615649e-20)
(0.0030627551 -0.026451983 -3.0762714e-20)
(0.004808867 -0.025140393 6.0282429e-20)
(0.0041630785 -0.020861145 -6.007556e-20)
(0.0044235201 -0.021480554 5.9908065e-20)
(0.0044563812 -0.021668113 0)
(0.0046107771 -0.022318797 5.6675069e-20)
(0.0047944554 -0.023164176 7.139241e-26)
(0.0050131733 -0.024163073 8.4187566e-22)
(0.0053111583 -0.025516017 -4.0743211e-22)
(0.0056777948 -0.027147902 0)
(0.0062791727 -0.029708678 -4.820982e-20)
(0.0072651416 -0.033602246 0)
(0.010770805 -0.040878963 0)
(0.013379207 -0.032340676 9.4217889e-20)
(0.0088319202 -0.020654 -9.5716759e-20)
(0.0097123538 -0.021974309 0)
(0.0096859296 -0.02201025 -1.8133711e-19)
(0.010044841 -0.022722024 -5.2333418e-26)
(0.010915885 -0.024656964 -8.2780886e-26)
(0.011515373 -0.025843377 -1.5996488e-19)
(0.014175145 -0.031756343 -2.5113609e-24)
(0.016388495 -0.029855648 3.0284655e-22)
(0.012870131 -0.022718955 -1.5288047e-19)
(0.013333506 -0.023160864 -1.4815415e-19)
(0.014082357 -0.024440266 -5.5647468e-22)
(0.015055966 -0.026052707 2.7294038e-19)
(0.017194846 -0.029692955 2.5981006e-19)
(0.019269764 -0.032916499 -1.6845828e-25)
(0.028374552 -0.045738187 -2.331757e-22)
(0.028989606 -0.032095142 -2.4782348e-22)
(0.011433916 -0.012448071 2.5261898e-22)
(0.017156613 -0.017946757 2.4973318e-19)
(0.017830085 -0.018761718 2.3875549e-19)
(0.021480141 -0.022442938 -1.1133179e-22)
(0.028214087 -0.027274054 2.1777437e-22)
(0.022420025 -0.01799215 4.4072795e-19)
(0.012573186 -0.0098590852 -8.7378608e-19)
(0.016707633 -0.01282768 -1.0147566e-22)
(0.019302865 -0.014828059 -5.8390819e-25)
(0.024832885 -0.017646359 3.8491027e-19)
(0.017014274 -0.010227003 3.7580512e-19)
(0.0081840669 -0.0048091521 0)
(0.011022846 -0.0063038408 7.0006227e-19)
(0.013987645 -0.0080594989 -3.326273e-19)
(0.013442854 -0.0070808523 6.4192555e-19)
(0.0098525658 -0.0051322151 6.1592276e-19)
(0.011962009 -0.0061770299 1.169019e-18)
(0.013438517 -0.0069598916 -5.5509855e-19)
(0.019450498 0.0055197654 3.1014132e-19)
(0.013859926 0.0039013488 7.9981473e-23)
(0.016841172 0.00522516 -8.1777853e-23)
(0.034945148 0.013960373 1.6806044e-22)
(0.033052096 0.020442261 3.4312393e-19)
(0.023328482 0.014335263 0)
(0.020949197 0.013141242 3.8891954e-19)
(0.023805065 0.015079482 -9.8329792e-23)
(0.02353859 0.01813307 -9.8964842e-23)
(0.018628652 0.014667699 2.0793402e-22)
(0.017762532 0.014037374 -1.0912891e-22)
(0.015129549 0.012097232 -4.7051376e-19)
(0.019008335 0.015375008 4.8417808e-19)
(0.018233705 0.018550526 2.3841673e-19)
(0.014401247 0.015142624 -2.4128165e-22)
(0.012958318 0.013746352 2.6114679e-19)
(0.01243727 0.01314501 0)
(0.010132262 0.010913199 5.7070495e-19)
(0.014430502 0.015787892 0)
(0.010589143 0.01819603 -2.5934521e-19)
(0.007201082 0.012413968 -2.7423494e-19)
(0.0067081402 0.011731261 5.6307641e-22)
(0.0055606587 0.0097282721 -1.5095481e-19)
(0.0051924716 0.0091118524 0)
(0.0046105942 0.0080805752 -1.6419767e-19)
(0.0041876612 0.0073755319 3.3373278e-22)
(0.0040526171 0.007331325 -1.759931e-19)
(0.0030999103 0.0065523064 -1.7395683e-19)
(0.0023625141 0.0050120988 -3.6372255e-19)
(0.0020439916 0.0043391449 0)
(0.0015941023 0.0033452222 0)
(0.0012434912 0.0025640045 -2.0758129e-19)
(0.00084556023 0.0016608709 2.159011e-19)
(0.00037917083 0.00058842852 0)
(-0.00011644899 -0.00050329536 -1.72976e-27)
(-0.00029537815 -0.0019088615 -5.1939474e-20)
(-0.00052999931 -0.002973748 5.3821699e-20)
(-0.00069137989 -0.0038134924 0)
(-0.00090011283 -0.0048425929 0)
(-0.0010699783 -0.0057257851 -5.8999473e-20)
(-0.0012792916 -0.0067929329 5.9611956e-20)
(-0.0014698107 -0.0077920761 -6.1018392e-20)
(-0.001701775 -0.0089992942 9.8870821e-22)
(-0.0019101962 -0.010145625 -1.00577e-21)
(-0.0022045828 -0.011723824 0)
(-0.0024054507 -0.013124191 -6.5667613e-20)
(-0.0028806302 -0.016045663 -6.6337287e-20)
(-0.0017671054 -0.016734311 0)
(-0.0015504338 -0.016174107 3.3849503e-20)
(-0.0015803375 -0.017468829 3.405041e-20)
(-0.0016742565 -0.018692679 2.673224e-22)
(-0.0017843765 -0.020343528 -3.4190606e-20)
(-0.0019211614 -0.022285478 -3.39998e-20)
(-0.0020039431 -0.024681656 -1.3056967e-22)
(-0.0021789539 -0.028573212 -1.2696375e-22)
(-0.00081876981 -0.03355192 -8.3543328e-21)
(0.0023896007 -0.03049978 1.2554536e-22)
(0.0024604089 -0.02574319 -3.3473303e-20)
(0.0027600244 -0.025906956 -3.4191601e-20)
(0.0028456541 -0.026372182 -2.623566e-22)
(0.0030137822 -0.027280061 2.5775705e-22)
(0.0032455467 -0.029125395 -5.0530791e-22)
(0.0035316329 -0.030364477 -3.0818216e-20)
(0.0041846438 -0.035033374 0)
(0.006440217 -0.034113956 -6.044437e-20)
(0.0058637029 -0.029627662 6.0716602e-20)
(0.0061415412 -0.029765955 4.7772848e-22)
(0.0061975945 -0.029974187 -9.3596436e-22)
(0.0063950815 -0.030736908 9.1219694e-22)
(0.0066359192 -0.031793094 0)
(0.0069278892 -0.033072489 8.6086105e-22)
(0.0073215559 -0.03478912 -1.6658328e-21)
(0.0078164913 -0.036884462 -5.0531535e-20)
(0.0086168333 -0.040077581 0)
(0.0099688197 -0.044869882 0)
(0.014277022 -0.053405075 -9.2134261e-20)
(0.018286431 -0.044742095 -7.2845792e-22)
(0.013320228 -0.031514272 9.6544209e-20)
(0.013813373 -0.031263127 0)
(0.01372739 -0.031129654 1.8830458e-19)
(0.014144962 -0.031872711 -3.5140966e-22)
(0.015185489 -0.034135383 -8.5990913e-26)
(0.016055327 -0.035756733 1.6293305e-19)
(0.019241869 -0.042729373 -3.0990158e-19)
(0.022427617 -0.040957542 -1.5848406e-19)
(0.018640861 -0.03303995 3.1433863e-19)
(0.018857217 -0.032715554 3.0759799e-19)
(0.019716296 -0.034117464 -2.8802594e-22)
(0.020973622 -0.036135353 -1.4063313e-19)
(0.023621341 -0.04057059 -2.6740537e-19)
(0.026481485 -0.044770009 0)
(0.037354249 -0.059746243 0)
(0.040059573 -0.04478671 0)
(0.02009729 -0.022070776 0)
(0.024617557 -0.025680333 -2.5308332e-22)
(0.025614979 -0.026856583 2.405094e-22)
(0.030054473 -0.031200631 -2.3033136e-19)
(0.038316289 -0.036976535 0)
(0.032513941 -0.026297567 -4.4747687e-19)
(0.020422667 -0.01609629 4.5237004e-19)
(0.024224623 -0.018538152 4.3093399e-19)
(0.027604135 -0.021107174 -8.1214533e-19)
(0.034405525 -0.024454757 3.9919095e-19)
(0.025562498 -0.015506335 -9.4220718e-23)
(0.014132396 -0.0083536471 -5.8096886e-26)
(0.016774034 -0.0095534563 -3.654382e-19)
(0.020499563 -0.011784194 0)
(0.019949199 -0.010536835 -6.7047211e-19)
(0.015487013 -0.0080768258 -1.2920579e-18)
(0.017792593 -0.0091632549 -6.1164237e-19)
(0.01972314 -0.010197427 -7.0928821e-23)
(0.025191697 0.0071346072 7.9689327e-23)
(0.019407139 0.0054826521 -8.4240072e-23)
(0.024336152 0.0076374385 0)
(0.043977059 0.017688324 0)
(0.040620509 0.024985356 -3.5453199e-19)
(0.029811427 0.018214279 -9.1830653e-23)
(0.027331574 0.017147609 -4.076651e-19)
(0.03033581 0.019268225 -1.0257622e-22)
(0.029377602 0.022548545 0)
(0.02381127 0.018673351 1.1285128e-24)
(0.022625075 0.017834727 -2.2837341e-22)
(0.020011709 0.016015529 4.9340829e-19)
(0.024142132 0.019606248 -5.0428521e-19)
(0.022707265 0.022993997 -2.4855969e-19)
(0.018273762 0.019107037 0)
(0.016534569 0.017486726 0)
(0.015804906 0.016654056 -2.8540362e-19)
(0.013553504 0.014633712 -2.9180649e-22)
(0.018009762 0.019800248 0)
(0.013153056 0.022320899 0)
(0.0092154915 0.015721322 2.8728716e-19)
(0.0084864854 0.014745983 -1.5190154e-19)
(0.0071109222 0.012361378 0)
(0.0066078501 0.011533719 0)
(0.0058872222 0.010259217 3.4886687e-25)
(0.0053585978 0.0093974981 1.8062221e-19)
(0.0051343007 0.0092256044 0)
(0.0039476836 0.008223159 0)
(0.0030400179 0.0063582673 1.926075e-19)
(0.002616937 0.0054777257 0)
(0.0020550868 0.0042346009 0)
(0.0016080029 0.0032378396 2.191517e-19)
(0.0011099054 0.0020954576 -2.2791335e-19)
(0.00053390609 0.00075639113 1.1835439e-19)
(-7.6318434e-05 -0.00059336624 -1.2123635e-19)
(-0.00032114474 -0.0023614201 -5.5943819e-20)
(-0.00062612215 -0.00371063 -8.9106483e-22)
(-0.00083115394 -0.0047800264 9.1862217e-22)
(-0.0010905172 -0.0060579971 6.1455979e-20)
(-0.00130421 -0.0071763082 -6.3055518e-20)
(-0.0015593042 -0.0084921833 -1.2708935e-19)
(-0.0017934881 -0.0097399235 -6.4835454e-20)
(-0.0020718629 -0.011212914 0)
(-0.0023210847 -0.012627847 0)
(-0.0026629877 -0.014507604 0)
(-0.0028816546 -0.016212009 1.34798e-19)
(-0.0034161341 -0.019490628 6.8442782e-20)
(-0.002183742 -0.020652392 -5.3648143e-22)
(-0.0019378746 -0.020334307 -5.430658e-22)
(-0.0019189383 -0.021718901 -6.8978508e-20)
(-0.002010645 -0.023183558 0)
(-0.0021184983 -0.025101896 0)
(-0.0022497746 -0.027351064 3.3684455e-20)
(-0.0022955226 -0.03011733 3.3761473e-20)
(-0.0023844974 -0.034302434 -3.1985805e-20)
(-0.00087335269 -0.039768314 8.338606e-21)
(0.0028326127 -0.037669701 0)
(0.0030738225 -0.033160554 6.6507146e-20)
(0.00347836 -0.032846457 3.4730966e-20)
(0.0036205334 -0.033242895 -2.1746829e-26)
(0.0038460096 -0.034213883 -3.3089569e-20)
(0.0041195174 -0.036200599 -3.2380012e-20)
(0.0045253157 -0.037723288 3.118024e-20)
(0.0052455502 -0.042559709 0)
(0.0079178209 -0.042169937 6.0017244e-20)
(0.0074911678 -0.038080039 0)
(0.007804184 -0.037809999 0)
(0.007884595 -0.037957075 6.0582793e-20)
(0.008119224 -0.038761475 -2.2486679e-25)
(0.0084072545 -0.039953975 0)
(0.0087624954 -0.041439748 -5.5781616e-20)
(0.0092379816 -0.043422371 -5.3922841e-20)
(0.0098464488 -0.045865427 5.1848143e-20)
(0.010827949 -0.049489197 -7.7036745e-22)
(0.012500858 -0.054838454 7.1635981e-22)
(0.017375856 -0.063889902 9.2790957e-20)
(0.022718693 -0.056048607 0)
(0.017976415 -0.042886353 -9.510096e-20)
(0.018061149 -0.040977273 -1.2145481e-25)
(0.017835539 -0.040393338 -1.9299991e-19)
(0.018263119 -0.04101017 7.1727009e-22)
(0.019380567 -0.043369125 0)
(0.020500583 -0.045320517 1.6598026e-19)
(0.023973071 -0.052767684 1.5673301e-19)
(0.028015862 -0.051346004 1.6045335e-19)
(0.024493024 -0.043524542 -6.2033582e-22)
(0.024466287 -0.042428208 -8.3512921e-25)
(0.025319478 -0.043704 0)
(0.02677736 -0.045948605 0)
(0.029755853 -0.050836728 5.4363244e-19)
(0.033300245 -0.055760296 2.4939834e-19)
(0.045113715 -0.0715576 0)
(0.050309393 -0.056655452 2.4591613e-19)
(0.03020933 -0.033365505 0)
(0.03277466 -0.034206458 -2.6316148e-19)
(0.033760816 -0.035292503 -2.510601e-19)
(0.038636153 -0.0398745 2.3166869e-19)
(0.047797215 -0.046009333 -2.2835075e-22)
(0.042824074 -0.034836781 0)
(0.029651718 -0.02347147 4.5960401e-19)
(0.032448621 -0.024779137 -3.2468166e-25)
(0.036238155 -0.027590491 -1.9926681e-22)
(0.043791072 -0.031110353 -8.1107102e-19)
(0.034864307 -0.02129372 3.8728503e-19)
(0.021653659 -0.012860182 0)
(0.0234865 -0.013362453 0)
(0.02758568 -0.01583165 0)
(0.027113458 -0.014349951 6.8213921e-19)
(0.022123215 -0.011551999 6.593483e-19)
(0.024299271 -0.0124974 0)
(0.026530013 -0.01369934 5.9021228e-19)
(0.031114732 0.0088021482 -8.3061669e-23)
(0.025773214 0.0073237372 -3.6075964e-19)
(0.032541209 0.010310567 -8.5977698e-23)
(0.052257088 0.021138831 -3.6031759e-19)
(0.047370587 0.028956158 3.6160393e-19)
(0.036145828 0.021974467 0)
(0.033667505 0.021122667 4.2416622e-19)
(0.036522912 0.023224055 0)
(0.034769741 0.026576892 0)
(0.028826173 0.022514657 4.5614158e-19)
(0.027379954 0.021537558 4.8517817e-19)
(0.02494191 0.019969472 0)
(0.028971505 0.023577533 -5.2099852e-19)
(0.026792149 0.026989409 -5.0108707e-22)
(0.021963541 0.022836749 2.6658947e-19)
(0.019977534 0.021059919 0)
(0.019085453 0.020061781 2.9716588e-19)
(0.017009485 0.018399627 5.0143774e-26)
(0.021264873 0.023424265 0)
(0.015476319 0.025906984 -2.7877688e-19)
(0.011159243 0.018831506 -2.9205698e-22)
(0.010174406 0.017553305 1.5938806e-19)
(0.0086111638 0.014868485 0)
(0.0079673073 0.013824439 0)
(0.0071215205 0.012334887 1.8196775e-19)
(0.0064905528 0.011325692 0)
(0.006159473 0.010980793 -7.6384009e-22)
(0.0047622244 0.009764957 7.5099368e-22)
(0.0037053275 0.0076326639 0)
(0.0031752848 0.0065439412 0)
(0.0025106537 0.0050722802 -8.6498285e-22)
(0.0019709465 0.003867586 2.3161634e-19)
(0.0013809581 0.0025005018 -2.3972313e-19)
(0.00070928283 0.00092094295 -1.2434131e-19)
(2.2069833e-06 -0.0006533433 -1.2821318e-19)
(-0.00031446734 -0.0027618873 5.7991577e-20)
(-0.00068984827 -0.0043772044 6.0956378e-20)
(-0.00093756922 -0.0056650269 -6.2690057e-20)
(-0.0012413107 -0.0071682577 -6.4347595e-20)
(-0.0014940199 -0.0085054678 2.0244728e-21)
(-0.0017889613 -0.010040928 6.6062894e-20)
(-0.00206022 -0.011511347 -1.2056802e-25)
(-0.0023760351 -0.013210693 -1.0622099e-21)
(-0.0026561167 -0.014856707 0)
(-0.0030297758 -0.016973007 0)
(-0.0032518396 -0.018923037 -6.8118394e-20)
(-0.0038139595 -0.022394621 0)
(-0.0025217513 -0.024014731 3.5052504e-20)
(-0.0022622926 -0.024055571 3.5176219e-20)
(-0.0021995449 -0.025525745 -5.238572e-26)
(-0.0022709041 -0.027168184 -3.4242992e-20)
(-0.0023652143 -0.029274199 -2.6876373e-22)
(-0.0024787663 -0.031727095 -2.6422323e-22)
(-0.0024732792 -0.034733288 -3.269827e-20)
(-0.0024521936 -0.038965554 6.2133502e-20)
(-0.00082901999 -0.044603704 6.3514463e-23)
(0.0031808963 -0.043564077 -3.1076917e-20)
(0.0036113532 -0.039811849 -6.5893356e-20)
(0.0041319679 -0.039302266 -3.3975911e-20)
(0.0043506955 -0.039606381 -6.7365855e-20)
(0.0046328636 -0.040576153 1.0203859e-21)
(0.0049522009 -0.042592454 -4.9799692e-22)
(0.0054649993 -0.044298823 -3.0530518e-20)
(0.0062380837 -0.049044324 2.9627176e-20)
(0.0092203386 -0.049163642 -5.79113e-20)
(0.0089849302 -0.045809743 -9.3949489e-22)
(0.009365292 -0.045380763 0)
(0.0094827654 -0.045464938 -6.0393842e-20)
(0.00975538 -0.046264085 -1.177598e-19)
(0.010082057 -0.047530166 0)
(0.010492575 -0.049151779 -5.5637356e-20)
(0.011038503 -0.051311213 1.0752044e-19)
(0.011749386 -0.053988407 0)
(0.012889304 -0.057868872 7.6326102e-22)
(0.014833622 -0.06346958 -7.0192014e-22)
(0.020077815 -0.07246615 -7.1156897e-22)
(0.026554685 -0.065852788 6.9223511e-22)
(0.02246231 -0.053926618 9.4515739e-20)
(0.022335825 -0.050860883 -7.6308178e-22)
(0.021951628 -0.049690856 1.916682e-19)
(0.022343234 -0.050032559 7.2232527e-22)
(0.023469608 -0.052286938 0)
(0.024787627 -0.054421931 -1.5705209e-24)
(0.028366988 -0.061885384 6.0826541e-22)
(0.033096283 -0.060837513 -6.2338872e-22)
(0.030178404 -0.053703802 6.361386e-25)
(0.030041192 -0.052097522 -1.5985274e-19)
(0.030829243 -0.053098424 0)
(0.032401151 -0.055381729 0)
(0.035561926 -0.060419723 -2.71691e-19)
(0.039635905 -0.065764544 -2.4545171e-19)
(0.051789337 -0.081355731 0)
(0.059415986 -0.06725618 -2.3777564e-19)
(0.040844428 -0.045297552 -2.5226852e-22)
(0.041606402 -0.043514123 -2.5889103e-22)
(0.042203991 -0.044026357 4.8839034e-22)
(0.047130712 -0.048407639 -2.2329641e-22)
(0.05663184 -0.054357462 -2.2583781e-22)
(0.052956277 -0.043264508 2.1284489e-22)
(0.039787727 -0.031601845 -4.5543364e-19)
(0.041334255 -0.031551161 -2.1259732e-22)
(0.045067295 -0.034198215 7.9892658e-19)
(0.052877861 -0.037529336 3.9911916e-19)
(0.04456599 -0.027361853 -3.7742562e-19)
(0.030485405 -0.018176272 3.8655284e-19)
(0.03111743 -0.017713762 1.7826542e-22)
(0.035112428 -0.020121675 0)
(0.034746569 -0.018417916 -6.6431627e-19)
(0.029536548 -0.015440886 7.8418278e-23)
(0.031327912 -0.016100155 -7.3348202e-23)
(0.033650658 -0.017355478 -5.6896362e-19)
(0.037257415 0.010538839 -3.5006706e-19)
(0.032856948 0.0093963596 -2.1716375e-25)
(0.041041785 0.013098795 3.5425729e-19)
(0.059624348 0.02423082 3.6252844e-19)
(0.053319991 0.032388789 0)
(0.042217236 0.025551382 0)
(0.03976131 0.024938845 -4.3599904e-19)
(0.042225726 0.026849905 -2.1734079e-22)
(0.039675886 0.030194849 4.3194414e-22)
(0.03359254 0.026134609 -4.6485301e-19)
(0.031971718 0.025102965 -4.9745575e-19)
(0.029737039 0.023815733 -2.5743756e-22)
(0.033383081 0.027184948 5.3330538e-19)
(0.030455363 0.030502275 0)
(0.025413683 0.026276859 -1.1120848e-24)
(0.023234563 0.024411467 -2.8522018e-22)
(0.022233608 0.023327506 3.0564505e-19)
(0.020353697 0.022022042 -3.1977943e-19)
(0.024146139 0.026578339 0)
(0.017545277 0.028939145 2.8317215e-19)
(0.012995304 0.021687055 6.0110374e-22)
(0.011753647 0.020118937 -1.655655e-19)
(0.010038096 0.017207621 1.7324098e-19)
(0.0092531203 0.01595044 -7.0968665e-22)
(0.0082950865 0.014273735 1.9012662e-19)
(0.0075624989 0.013118761 1.9867023e-19)
(0.0071112852 0.012565743 -7.9383833e-22)
(0.0055328047 0.011153536 0)
(0.0043485497 0.0088120667 0)
(0.0037121429 0.0075197686 0)
(0.0029548884 0.0058430399 -8.9969988e-22)
(0.0023280088 0.0044411744 -2.3872021e-19)
(0.0016559023 0.0028683928 1.376803e-25)
(0.00090436274 0.0010796141 1.0028662e-21)
(0.00012032366 -0.00068244406 1.3196078e-19)
(-0.00027337915 -0.0031017225 5.9194781e-20)
(-0.00071874064 -0.0049593576 -6.2311323e-20)
(-0.0010054146 -0.0064499508 1.2783833e-19)
(-0.0013506254 -0.0081514378 0)
(-0.0016382562 -0.0096856148 -6.7017323e-26)
(-0.0019653792 -0.011409412 0)
(-0.0022667122 -0.013070607 6.9277402e-20)
(-0.0026101674 -0.014954282 -1.0728648e-21)
(-0.0029119252 -0.016787221 -1.0732343e-21)
(-0.0033033003 -0.019075956 6.9516009e-20)
(-0.0035140058 -0.021206405 1.0474753e-21)
(-0.0040699169 -0.024730974 -1.0428168e-21)
(-0.0027682607 -0.026743701 -3.3752217e-20)
(-0.0025069648 -0.027198504 -7.0502614e-20)
(-0.002411072 -0.028782216 6.8538681e-20)
(-0.0024558801 -0.030554679 3.3879289e-20)
(-0.0025257408 -0.032777215 -3.3266872e-20)
(-0.0026086731 -0.03534376 3.2203967e-20)
(-0.0025411072 -0.03847108 3.642334e-22)
(-0.0024035815 -0.042582085 -2.9171315e-20)
(-0.00068762599 -0.048155543 5.9515547e-23)
(0.0034505687 -0.048065804 2.9584334e-20)
(0.0040610883 -0.045304811 2.478402e-22)
(0.0046949982 -0.0449234 6.6293812e-20)
(0.0050096181 -0.045224771 -5.0540399e-22)
(0.0053491572 -0.046180922 -3.1487318e-20)
(0.005719185 -0.048163207 3.0640729e-20)
(0.0063267488 -0.049952863 0)
(0.007137226 -0.05444685 -2.8177612e-20)
(0.010323143 -0.055002121 0)
(0.010300208 -0.052488779 0)
(0.010769328 -0.052162674 0)