/*--------------------------------*- C++ -*----------------------------------*\
| =========                 |                                                 |
| \\      /  F ield         | OpenFOAM: The Open Source CFD Toolbox           |
|  \\    /   O peration     | Version:  v2006                                 |
|   \\  /    A nd           | Website:  www.openfoam.com                      |
|    \\/     M anipulation  |                                                 |
\*---------------------------------------------------------------------------*/
FoamFile
{
    version     2.0;
    format      ascii;
    class       volVectorField;
    location    "4000";
    object      UMean;
}
// * * * * * * * * * * * * * * * * * * * * * * * * * * * * * * * * * * * * * //

dimensions      [0 1 -1 0 0 0 0];


internalField   nonuniform List<vector> 
103740
(
(0.0030234867 0.00086155794 1.7485344e-19)
(0.0014836245 0.00043043122 1.8463719e-19)
(0.001174226 0.00035325843 3.8895427e-19)
(0.0060642277 0.0023166571 2.4789191e-23)
(0.0064009817 0.0039237778 -2.0040528e-19)
(0.0039305405 0.0024367022 0)
(0.0031719389 0.0019892973 0)
(0.0039946068 0.0024983493 5.6702952e-23)
(0.0044060371 0.0033548469 -5.6992957e-23)
(0.0031356915 0.0024743821 0)
(0.0030949704 0.0024323908 6.2474563e-23)
(0.0021241873 0.0017104194 -2.6822108e-19)
(0.0033213595 0.002636924 2.8000598e-19)
(0.0036014909 0.003610859 -1.3737679e-19)
(0.0026166261 0.002748922 -2.841175e-19)
(0.0022829619 0.0024110778 1.4878972e-19)
(0.0022902964 0.0024054974 1.5581011e-19)
(0.0012795355 0.0014156689 -1.6266536e-19)
(0.0029839022 0.0031900454 -8.2506431e-23)
(0.0024632734 0.0041512283 0)
(0.001481551 0.0025688917 0)
(0.0014637122 0.0025204577 1.5879218e-22)
(0.0011950915 0.0020799922 8.4744506e-20)
(0.0011469689 0.0019925143 1.7282901e-22)
(0.0010425687 0.0018177725 -3.5987412e-22)
(0.00094786993 0.0016648821 -1.9149618e-19)
(0.0010531644 0.0018933703 0)
(0.00087828526 0.0018666746 -1.9073718e-22)
(0.0006892659 0.0014849994 1.0212524e-19)
(0.00064884671 0.001394844 0)
(0.00057113751 0.0012332446 0)
(0.00050695727 0.0010972275 -1.1530041e-19)
(0.00048765771 0.0010529561 -1.1979797e-19)
(0.00034075387 0.00074940635 6.2148337e-20)
(0.00047068818 0.0010399349 -6.4208624e-20)
(0.00019844549 0.00087573386 0)
(6.9314979e-05 0.00034136146 -2.3485856e-22)
(6.2605006e-05 0.00028523934 4.8759302e-22)
(4.809124e-06 3.1244961e-05 -3.2591184e-20)
(-9.7809256e-06 -5.0240313e-05 -3.3452473e-20)
(-4.9801853e-05 -0.00023373336 0)
(-7.1620424e-05 -0.00034472887 -3.559244e-20)
(-0.0001087002 -0.0005210545 3.6315096e-20)
(-0.00013715418 -0.00066297442 2.9340959e-22)
(-0.00018219635 -0.00088279303 -3.8447472e-20)
(-0.0002201434 -0.0010729544 -3.9261879e-20)
(-0.00028832966 -0.0014797209 -7.9531148e-20)
(-0.00016166738 -0.0015350204 -3.108015e-22)
(-0.00015233095 -0.0015219612 2.0320802e-20)
(-0.00018359185 -0.0018110767 2.0843135e-20)
(-0.00020092853 -0.0020073507 2.0813228e-20)
(-0.0002238961 -0.0022542919 2.1119255e-20)
(-0.00024780749 -0.0025004583 2.1352811e-20)
(-0.00027112724 -0.0028023001 8.3678653e-23)
(-0.00032062317 -0.0033931699 -2.1423929e-20)
(-9.9534014e-05 -0.0041572495 1.0765467e-20)
(0.00031915134 -0.0032305951 4.2816371e-20)
(0.00026602566 -0.0025250205 -2.1438078e-20)
(0.00030370901 -0.002914632 0)
(0.00031505211 -0.0029849071 2.1175461e-20)
(0.00033541118 -0.0031561717 0)
(0.00037677888 -0.0034795322 0)
(0.00039084266 -0.0036046528 2.0056645e-20)
(0.00053213797 -0.0045080835 -1.9635014e-20)
(0.00083308933 -0.0040523699 3.9687345e-20)
(0.00063427847 -0.0030951695 -3.9320421e-20)
(0.00072531133 -0.003470188 2.9834786e-22)
(0.00072152184 -0.0034497702 2.9124982e-22)
(0.00075374107 -0.0035784996 -3.2449994e-26)
(0.00079037384 -0.0037310258 -2.7577972e-22)
(0.00083347088 -0.0039134764 3.4237614e-20)
(0.00090050218 -0.0041931442 0)
(0.00097309179 -0.0045025545 6.3791202e-20)
(0.001105169 -0.0050419771 -3.0629747e-20)
(0.0012994109 -0.0058314502 0)
(0.0020964511 -0.0074771654 -5.9452523e-20)
(0.0023227076 -0.0052912749 2.4568312e-22)
(0.0012107431 -0.0028764528 6.0752601e-20)
(0.0016998681 -0.0038107989 -2.296634e-22)
(0.0016748296 -0.0037671398 -1.1296371e-19)
(0.0017698633 -0.0039577172 -1.0897697e-19)
(0.001972867 -0.0043713734 2.0387525e-22)
(0.0020502264 -0.0045482923 3.8508717e-25)
(0.0026944392 -0.0058412308 0)
(0.0029868701 -0.0052846025 9.8354366e-20)
(0.0020522383 -0.003620008 -1.9097472e-19)
(0.0023575186 -0.0040446316 1.8360583e-19)
(0.0025186218 -0.0043051814 0)
(0.0027069915 -0.004611514 -3.5110502e-25)
(0.0031926788 -0.0053840345 0)
(0.0035434501 -0.005963469 0)
(0.0057618272 -0.0088969137 7.4305633e-23)
(0.0051858695 -0.0054872652 -1.6318624e-22)
(0.00095691634 -0.0012178135 1.6119101e-19)
(0.0031706763 -0.0033170324 1.8097346e-26)
(0.0031095523 -0.0032837954 7.1952108e-23)
(0.0039613487 -0.0041260869 4.8125818e-25)
(0.0054435095 -0.0051484081 1.4969396e-24)
(0.0037367422 -0.0029392894 2.7767195e-19)
(0.0016850797 -0.0013760855 -2.6631376e-19)
(0.0030047532 -0.0023219816 6.2009058e-23)
(0.0034389166 -0.0026545017 2.4180354e-19)
(0.0046653346 -0.0032636088 0)
(0.0027034689 -0.0015981831 2.3179685e-19)
(0.0010068962 -0.00062288428 -2.2157229e-19)
(0.00184373 -0.0010781935 -4.2128467e-19)
(0.0024126782 -0.0013979226 4.8854561e-23)
(0.0022420512 -0.0011768095 -2.3585939e-23)
(0.0014513401 -0.00077264799 3.684617e-19)
(0.0019812779 -0.0010347262 -2.1455253e-23)
(0.0022470598 -0.0011702617 0)
(0.0089791958 0.0025599794 0)
(0.0049918311 0.0014054286 1.2649884e-25)
(0.0050845078 0.0015322745 -6.0976292e-19)
(0.017698973 0.0069379479 3.377887e-26)
(0.017888452 0.011190042 3.1216711e-19)
(0.01151077 0.0071667098 0)
(0.0097319219 0.0061049447 3.4792998e-19)
(0.011861056 0.0074902414 -1.7723274e-22)
(0.012514602 0.0097150573 8.911692e-23)
(0.0092693418 0.0073615758 9.3155181e-23)
(0.0089865805 0.0071467939 -9.7899872e-23)
(0.0067776679 0.0054040099 -6.2210114e-25)
(0.0098183868 0.0079014443 -1.0672847e-22)
(0.010153057 0.010429785 -2.1447885e-19)
(0.0076030165 0.0080876309 2.2234676e-19)
(0.0067305602 0.0071842028 -2.3335274e-19)
(0.0065975948 0.0070301588 -4.8815685e-19)
(0.0044275412 0.0047362524 -2.5497217e-19)
(0.0085436261 0.0093352131 1.2851949e-22)
(0.0067044689 0.011823722 -2.2744972e-22)
(0.0043002202 0.0075838065 0)
(0.0041515283 0.0073652231 -1.2815183e-19)
(0.0034658192 0.0061508699 2.6022978e-22)
(0.0033067336 0.0058742141 0)
(0.0030245928 0.0053729199 -2.8299366e-22)
(0.002799884 0.0049854502 5.8896135e-22)
(0.0030144932 0.0055479356 -3.0319118e-22)
(0.0024836102 0.0054301896 -3.0662169e-19)
(0.00199922 0.0043814058 0)
(0.0018682181 0.0041004639 -1.6769503e-19)
(0.0016555048 0.0036325031 3.4064487e-22)
(0.0014821175 0.0032498222 1.8116287e-19)
(0.0014033132 0.0030732508 -1.886039e-19)
(0.0010574895 0.0023122318 -1.9570755e-19)
(0.001327521 0.0029867725 3.9453608e-22)
(0.00054513398 0.0024895025 0)
(0.0002291722 0.0010400815 -4.7037033e-20)
(0.00018402623 0.00083510211 4.8836132e-20)
(3.7276045e-05 0.00012344221 0)
(-1.3727412e-05 -0.00013293539 5.2299928e-20)
(-0.00011887107 -0.00065260431 -5.395473e-20)
(-0.00018401376 -0.00098332812 0)
(-0.00028365026 -0.0014835188 -5.749654e-20)
(-0.00036422838 -0.0018972381 0)
(-0.00048491851 -0.0025130345 6.0211254e-20)
(-0.00058642523 -0.0030578781 6.1341959e-20)
(-0.00076454453 -0.0041419854 6.2274293e-20)
(-0.00043855037 -0.0044066308 -3.1036378e-20)
(-0.00041969348 -0.0044377235 -3.1669429e-20)
(-0.00048504782 -0.0051762154 -2.5117474e-22)
(-0.00054255943 -0.0057516848 2.541861e-22)
(-0.0006068477 -0.0064299882 3.2800713e-20)
(-0.00067086182 -0.0071110342 -3.2810579e-20)
(-0.00072564914 -0.0079175975 -3.3041199e-20)
(-0.00084241678 -0.0094041636 6.5407851e-20)
(-0.00029067252 -0.011384717 -1.644217e-20)
(0.00087181008 -0.0094846111 -6.5410241e-20)
(0.00078844517 -0.0076739368 1.9330894e-22)
(0.0008874079 -0.0083979343 -1.2835079e-22)
(0.00091297564 -0.0086554631 2.544791e-22)
(0.00096710801 -0.0091004888 -2.511968e-22)
(0.0010584621 -0.0099403677 0)
(0.0011196388 -0.01034644 -3.1420678e-20)
(0.0014052784 -0.012546686 6.0938377e-20)
(0.0022976104 -0.011678128 -6.0532996e-20)
(0.0018999777 -0.0094144375 4.6823648e-22)
(0.0020529045 -0.01004724 -5.9253467e-20)
(0.0020536417 -0.010067491 0)
(0.0021251715 -0.01039152 0)
(0.0022145292 -0.010817235 -4.2513441e-22)
(0.0023232143 -0.011332176 5.3210668e-20)
(0.0024852133 -0.012100954 -3.9927558e-22)
(0.002668637 -0.012967995 -4.8591072e-20)
(0.0029860341 -0.014423444 9.5001704e-20)
(0.0034646474 -0.016534478 -3.5514402e-22)
(0.0053582511 -0.020720349 0)
(0.0066610856 -0.015739059 -9.5475278e-20)
(0.0041803243 -0.0095933988 9.4120177e-20)
(0.0049497306 -0.011253785 0)
(0.0049356582 -0.011253096 0)
(0.0051501194 -0.011720121 0)
(0.0056287591 -0.012806116 0)
(0.0058913879 -0.013360991 1.5518134e-19)
(0.0073684642 -0.01670206 1.4755874e-19)
(0.0084810115 -0.015438565 0)
(0.0064320109 -0.011285728 1.4804934e-19)
(0.0068983536 -0.012024736 -1.4300592e-19)
(0.0073062782 -0.012740455 6.0733423e-26)
(0.0078046697 -0.013590949 -2.6313528e-19)
(0.0090001439 -0.015662314 -2.5146579e-19)
(0.010017363 -0.017326888 0)
(0.015292323 -0.024929488 0)
(0.015167245 -0.016518064 0)
(0.0049966056 -0.0053115023 -2.5105729e-19)
(0.0092909419 -0.009788811 0)
(0.0094237436 -0.0099626291 -1.1214735e-22)
(0.011525598 -0.012143512 4.364379e-19)
(0.01535248 -0.014886283 4.2947355e-19)
(0.011642984 -0.0092289219 1.0510346e-22)
(0.0062016563 -0.0048199421 4.1757e-19)
(0.0090436421 -0.0069856989 9.7089155e-23)
(0.010332722 -0.0079864623 -6.9293738e-25)
(0.013508879 -0.0096020383 -3.6829343e-19)
(0.0087668608 -0.0051906588 -7.2415761e-19)
(0.0040149721 -0.0023308957 3.490959e-19)
(0.0058770116 -0.0033807909 -2.1145239e-25)
(0.0074346686 -0.0042962204 3.1540503e-19)
(0.0070348533 -0.0036893369 -1.4865336e-22)
(0.0049302443 -0.0025610756 -5.8174675e-19)
(0.0062075926 -0.0032149699 -1.8468198e-25)
(0.0069674342 -0.003614809 5.249472e-19)
(0.015045113 0.0042725953 -2.9230681e-19)
(0.0092642412 0.0025986762 -3.0888946e-19)
(0.010727863 0.0033125916 3.1988262e-19)
(0.029119417 0.011562326 -8.0297761e-23)
(0.028515011 0.017721784 -6.5345259e-19)
(0.019098552 0.011800267 0)
(0.016699599 0.01047877 -3.6733639e-19)
(0.019815756 0.012539928 0)
(0.020278683 0.015670742 0)
(0.015478438 0.012231686 -4.0139671e-19)
(0.014841726 0.011756106 -1.0323636e-22)
(0.011939185 0.0095418103 4.4440551e-19)
(0.016363133 0.01322741 -1.1189132e-22)
(0.016429096 0.016783607 2.2568863e-19)
(0.012582607 0.013294183 2.2822594e-22)
(0.011238431 0.011954083 -2.4643627e-19)
(0.010875184 0.011527042 2.5733524e-19)
(0.0081263447 0.0087624543 -9.3584954e-25)
(0.013941098 0.015295731 0)
(0.010790266 0.018778231 2.4462601e-19)
(0.007173654 0.012506197 0)
(0.0068282503 0.012031417 0)
(0.0057697547 0.01017511 -4.526547e-25)
(0.0054832876 0.0096914053 0)
(0.0050326524 0.0088952895 0)
(0.0046992598 0.0083535908 2.1329951e-25)
(0.0049669998 0.0091097174 1.6472719e-19)
(0.0040947119 0.0088506606 3.2387598e-19)
(0.0033373483 0.0072415478 1.70238e-19)
(0.0031030535 0.0067559354 1.7715244e-19)
(0.0027583858 0.0059996144 7.2266254e-22)
(0.0024788674 0.0053924843 -7.5232777e-22)
(0.0023266962 0.0050407946 2.0048537e-19)
(0.0018233248 0.003972361 1.0382379e-19)
(0.0021675584 0.0048275744 1.0705801e-19)
(0.00093344501 0.0039808401 4.8239e-20)
(0.00042195358 0.0017688093 1.7503564e-26)
(0.00032652714 0.0013725477 -5.1924267e-20)
(9.1529847e-05 0.00024906876 -2.2917991e-27)
(3.5798736e-07 -0.00019947744 5.5560308e-20)
(-0.00016779164 -0.0010301235 5.7716849e-20)
(-0.00027618801 -0.0015835456 5.9811592e-20)
(-0.0004343706 -0.002385254 -4.755993e-22)
(-0.00056332856 -0.0030644895 4.8652025e-22)
(-0.00075082422 -0.0040405002 -6.352974e-20)
(-0.00090380218 -0.0049206921 -5.0425082e-22)
(-0.0011794183 -0.0065635411 -5.1121777e-22)
(-0.00070910979 -0.0071301553 3.3161672e-20)
(-0.00067143711 -0.0072831663 -3.3249032e-20)
(-0.00075283862 -0.0083632519 2.6291646e-22)
(-0.00084361259 -0.0093004923 -2.654669e-22)
(-0.0009407002 -0.010359366 2.6697144e-22)
(-0.0010349224 -0.011424942 -2.672804e-22)
(-0.0010991791 -0.012655593 -1.329253e-22)
(-0.0012285074 -0.014786647 -3.3528003e-20)
(-0.00043723581 -0.017693087 8.5113656e-21)
(0.0013359082 -0.015572388 3.3551393e-20)
(0.001310183 -0.013019023 0)
(0.0014692208 -0.013711886 0)
(0.0015172009 -0.01415006 3.3763461e-20)
(0.0016115576 -0.014814259 0)
(0.0017529001 -0.016046298 5.1078646e-22)
(0.0018835913 -0.016753437 6.3255138e-20)
(0.0022932663 -0.019802413 -3.1601681e-20)
(0.0036559947 -0.018944747 6.2120294e-20)
(0.0031933694 -0.015953124 -6.1427572e-20)
(0.0033837909 -0.01645431 6.0978228e-20)
(0.0033977473 -0.016540224 0)
(0.0035117804 -0.017008551 5.7649043e-20)
(0.0036588043 -0.017671507 5.7419413e-26)
(0.0038399122 -0.018485147 8.5648057e-22)
(0.0041017783 -0.019672189 -4.1464899e-22)
(0.0044059412 -0.021032185 0)
(0.0049202714 -0.023235653 -4.9159328e-20)
(0.0057146471 -0.026404112 0)
(0.0085516183 -0.032387801 0)
(0.010892355 -0.026144016 9.702967e-20)
(0.0075193014 -0.017504404 -9.7223549e-20)
(0.0082940954 -0.018775534 0)
(0.0082948409 -0.018846334 -1.8308037e-19)
(0.0086084812 -0.01948321 -5.0425587e-26)
(0.0093162913 -0.021056676 -7.3075622e-26)
(0.009793045 -0.022000204 -1.6188145e-19)
(0.011951297 -0.026789854 -2.0730089e-24)
(0.013885409 -0.02527445 3.0726176e-22)
(0.011112863 -0.019590152 -1.5456489e-19)
(0.011556535 -0.020080767 -1.4944588e-19)
(0.01216363 -0.021118832 -5.6152834e-22)
(0.012951808 -0.022421967 2.7561749e-19)
(0.014750997 -0.025482698 2.6260014e-19)
(0.01645552 -0.028125286 -1.4103225e-25)
(0.024147964 -0.038922501 -2.3645039e-22)
(0.025086406 -0.027679308 -2.5298459e-22)
(0.010786324 -0.01169858 2.5484533e-22)
(0.015584141 -0.016329151 2.5155263e-19)
(0.016049662 -0.016901462 2.4050462e-19)
(0.019127838 -0.020006225 -1.122647e-22)
(0.024846135 -0.024015093 2.1950178e-22)
(0.020143785 -0.016124613 4.456036e-19)
(0.01192958 -0.0093463223 -8.7806738e-19)
(0.015394331 -0.011836931 -1.0205669e-22)
(0.017500004 -0.013456739 -6.28055e-25)
(0.022229444 -0.015795198 3.8726463e-19)
(0.015651786 -0.0093797482 3.7858507e-19)
(0.0081486999 -0.0047818421 0)
(0.010441572 -0.0059830087 7.0281138e-19)
(0.012846822 -0.0074081397 -3.3399101e-19)
(0.012320089 -0.0064865093 6.4447221e-19)
(0.0091336887 -0.0047595704 6.1778077e-19)
(0.010875071 -0.0056192303 1.1733938e-18)
(0.01209346 -0.0062651957 -5.5717067e-19)
(0.021250809 0.0060153634 3.0840481e-19)
(0.014463248 0.0040552483 7.9609266e-23)
(0.018015536 0.0056456595 -8.0951871e-23)
(0.040109282 0.016070229 1.6554861e-22)
(0.038132372 0.023570592 3.3888663e-19)
(0.026662561 0.016371426 0)
(0.02399682 0.015064168 3.8611325e-19)
(0.027694576 0.017586175 -9.7227548e-23)
(0.027581805 0.021242094 -9.7945716e-23)
(0.021677442 0.017057878 2.0589953e-22)
(0.020642953 0.016305656 -1.0818706e-22)
(0.01755694 0.014057431 -4.6639822e-19)
(0.022813402 0.018538463 4.7708589e-19)
(0.022289498 0.022679495 2.3565495e-19)
(0.017472975 0.018357549 -2.384315e-22)
(0.015732116 0.016685623 2.5869175e-19)
(0.015113637 0.015963013 0)
(0.012327402 0.013355043 5.6341553e-19)
(0.019009616 0.021017224 0)
(0.014529361 0.025010006 -2.5506446e-19)
(0.010016864 0.017290448 -2.7039774e-19)
(0.0094111239 0.016496126 5.5687009e-22)
(0.0080494764 0.014122889 -1.4933542e-19)
(0.0076220809 0.01342014 0)
(0.0070232003 0.012367697 -1.624259e-19)
(0.0066057025 0.011729675 3.2978291e-22)
(0.006855571 0.012543589 -1.7355933e-19)
(0.0056536199 0.012102104 -1.7134371e-19)
(0.0046669931 0.010037625 -3.5839771e-19)
(0.0043188261 0.0093372952 0)
(0.0038522734 0.0083137527 0)
(0.0034728429 0.0074992258 -2.0442307e-19)
(0.0032372871 0.006947884 2.1229923e-19)
(0.002623097 0.0056873748 0)
(0.0029581914 0.0065401181 -2.0455686e-26)
(0.0013319746 0.0053317835 -5.0863942e-20)
(0.0006471037 0.0025175467 5.3319185e-20)
(0.00048476711 0.0018932198 0)
(0.00017143215 0.00040723945 0)
(3.4949592e-05 -0.00024777992 -5.9295515e-20)
(-0.00018952862 -0.001361888 6.0091363e-20)
(-0.00034081974 -0.002137792 -6.1701548e-20)
(-0.00055074842 -0.0032160464 1.0028388e-21)
(-0.00072341355 -0.0041502984 -1.0237211e-21)
(-0.00096663879 -0.0054467827 0)
(-0.0011573649 -0.006636253 -6.7488521e-20)
(-0.0015100272 -0.0087198581 -6.8315768e-20)
(-0.00094642372 -0.009650108 0)
(-0.00089331229 -0.010002487 3.4668091e-20)
(-0.00097264778 -0.011337001 3.4955567e-20)
(-0.0010908534 -0.012597506 2.7504794e-22)
(-0.0012134734 -0.013984917 -3.5329735e-20)
(-0.0013328721 -0.015378635 -3.525293e-20)
(-0.0013921018 -0.0169554 -1.3632215e-22)
(-0.0014905989 -0.019492688 -1.3387138e-22)
(-0.0005244338 -0.023022962 -8.7325571e-21)
(0.0017348662 -0.021224213 1.3343051e-22)
(0.0018048283 -0.018384509 -3.4935896e-20)
(0.002033729 -0.018846422 -3.5375913e-20)
(0.0021115388 -0.019399957 -2.7150936e-22)
(0.0022476224 -0.020231582 2.6710827e-22)
(0.0024304824 -0.021736086 -5.2418708e-22)
(0.0026447706 -0.022733667 -3.2076416e-20)
(0.0031376706 -0.026251941 0)
(0.0048911039 -0.0256754 -6.3279486e-20)
(0.0044679671 -0.022496317 6.2900428e-20)
(0.0046758915 -0.022684494 4.9073526e-22)
(0.0047083777 -0.022802066 -9.6005247e-22)
(0.0048615436 -0.023374444 9.3562767e-22)
(0.0050628361 -0.024234363 0)
(0.0053132786 -0.025307445 8.8241245e-22)
(0.0056647599 -0.026839931 -1.7081343e-21)
(0.0060820499 -0.028619505 -5.1864624e-20)
(0.0067721319 -0.031403774 0)
(0.0078700719 -0.03536019 0)
(0.011392385 -0.042474596 -9.4726284e-20)
(0.014881327 -0.036110191 -7.6146828e-22)
(0.01117186 -0.026267077 9.9093523e-20)
(0.011712844 -0.026495736 0)
(0.01169587 -0.026511604 1.909718e-19)
(0.012074762 -0.027221346 -3.5671193e-22)
(0.012937534 -0.02910298 -7.6179111e-26)
(0.013638341 -0.030410605 1.6590043e-19)
(0.016251276 -0.036117153 -3.1603896e-19)
(0.019017451 -0.034681524 -1.6201301e-19)
(0.016002924 -0.028313964 3.1988535e-19)
(0.016281056 -0.028249995 3.1163791e-19)
(0.016998169 -0.029427709 -2.9203606e-22)
(0.01802878 -0.031078335 -1.4275676e-19)
(0.020275555 -0.034840873 -2.7182034e-19)
(0.02264592 -0.038315347 0)
(0.03191912 -0.051052109 0)
(0.034651227 -0.038590669 0)
(0.018257464 -0.019971746 0)
(0.022203134 -0.023204303 -2.5606679e-22)
(0.022944917 -0.024081073 2.4331489e-22)
(0.026706637 -0.027758523 -2.3394384e-19)
(0.033778611 -0.03259571 0)
(0.029066185 -0.023441691 -4.5576205e-19)
(0.018921132 -0.014894634 4.5660925e-19)
(0.022162498 -0.016985129 4.3544509e-19)
(0.024922299 -0.019079968 -8.2246723e-19)
(0.030777595 -0.021870963 4.036217e-19)
(0.023303134 -0.014089772 -9.5486335e-23)
(0.013541427 -0.0079925275 -4.5187147e-26)
(0.015659766 -0.0089403898 -3.6867646e-19)
(0.018689467 -0.010756244 0)
(0.018136773 -0.009576103 -6.7632947e-19)
(0.014142763 -0.0073799262 -1.3016418e-18)
(0.016053758 -0.0082745921 -6.1710143e-19)
(0.017657814 -0.0091334864 -7.155913e-23)
(0.027656305 0.0078106416 7.8670665e-23)
(0.020713199 0.0058365337 -8.3377803e-23)
(0.026650239 0.0084414272 0)
(0.050415629 0.020347353 0)
(0.046735483 0.02872687 -3.469588e-19)
(0.034172661 0.020865715 -9.0078646e-23)
(0.031472382 0.019763129 -4.0225739e-19)
(0.035331453 0.022486832 -1.0068795e-22)
(0.034389268 0.026385916 0)
(0.02779161 0.02178151 1.150939e-24)
(0.026403227 0.020806967 -2.2501993e-22)
(0.023485121 0.018836793 4.858214e-19)
(0.029036657 0.023679326 -4.9279362e-19)
(0.027703224 0.028058733 -2.439097e-19)
(0.022228779 0.023223837 0)
(0.020161683 0.021320929 0)
(0.019338807 0.020377944 -2.8106638e-19)
(0.016850014 0.018321436 -2.8503452e-22)
(0.023689619 0.026319816 0)
(0.017910134 0.030467086 0)
(0.012787194 0.021858101 2.8125805e-19)
(0.011879655 0.020708191 -1.4938645e-19)
(0.010277921 0.01794007 0)
(0.0097023393 0.017014872 0)
(0.0089764765 0.015751019 4.8104583e-25)
(0.0084869605 0.015047274 1.7738455e-19)
(0.0086593529 0.01578763 0)
(0.0071457278 0.015139826 0)
(0.005970212 0.012725468 1.8825439e-19)
(0.0055016909 0.011805866 0)
(0.0049236316 0.010540291 0)
(0.0044494603 0.0095315104 2.1391002e-19)
(0.0041261988 0.0087748555 -2.2196341e-19)
(0.0034324022 0.007392238 1.1506684e-19)
(0.0036905292 0.0080875825 -1.1744331e-19)
(0.0017385895 0.006522948 -5.3970992e-20)
(0.00089984835 0.0032717183 -8.7547032e-22)
(0.00065891382 0.0023923244 9.1226484e-22)
(0.00027557367 0.00059613849 6.1405598e-20)
(9.0122682e-05 -0.00027521614 -6.338029e-20)
(-0.0001847324 -0.0016431685 -1.2830204e-19)
(-0.00037792291 -0.0026374619 -6.5741757e-20)
(-0.0006330613 -0.0039649756 0)
(-0.00084477029 -0.0051389971 0)
(-0.0011332377 -0.006713216 0)
(-0.0013521529 -0.0081777222 1.3957508e-19)
(-0.0017608611 -0.010589677 7.1006222e-20)
(-0.0011401697 -0.011908555 -5.5275214e-22)
(-0.0010810535 -0.012524182 -5.5776117e-22)
(-0.001148852 -0.01405379 -7.1103194e-20)
(-0.001284749 -0.015584478 0)
(-0.0014279929 -0.017246439 0)
(-0.0015633865 -0.018912932 3.5337524e-20)
(-0.0016064536 -0.020761914 3.5778009e-20)
(-0.0016415059 -0.02349628 -3.4366734e-20)
(-0.00054897399 -0.027378362 8.855214e-21)
(0.0020691561 -0.026186617 0)
(0.0022590808 -0.023503378 7.0789826e-20)
(0.0025658537 -0.023738909 3.641611e-20)
(0.0026853749 -0.024332724 -2.002482e-26)
(0.0028665396 -0.025278368 -3.4800297e-20)
(0.0030846781 -0.026951613 -3.4102956e-20)
(0.0033876865 -0.028196377 3.2983664e-20)
(0.0039369287 -0.031896852 0)
(0.0060064542 -0.031710822 6.3947071e-20)
(0.00568159 -0.028768101 0)
(0.0059145584 -0.0286703 0)
(0.0059710938 -0.028777345 6.270753e-20)
(0.0061632318 -0.029420187 -1.9118948e-25)
(0.0064158771 -0.03043622 0)
(0.0067309553 -0.031724399 -5.7500111e-20)
(0.0071621635 -0.033529357 -5.5584021e-20)
(0.0076832426 -0.035646564 5.3491217e-20)
(0.0085345105 -0.03884949 -7.9647322e-22)
(0.0099070875 -0.043334552 7.4493725e-22)
(0.013921174 -0.050986425 9.5869326e-20)
(0.018503291 -0.045225518 0)
(0.014929262 -0.035363234 -9.8631742e-20)
(0.015197862 -0.034426562 -1.1690039e-25)
(0.015113017 -0.034196601 -1.9664942e-19)
(0.015524377 -0.034871811 7.3179359e-22)
(0.016474976 -0.036892617 0)
(0.017390349 -0.038497713 1.7019148e-19)
(0.020271894 -0.044659703 1.6106263e-19)
(0.023800415 -0.043486362 1.6538755e-19)
(0.020943078 -0.037144101 -6.3673336e-22)
(0.021042406 -0.036486728 -8.3110947e-25)
(0.021782671 -0.037615325 0)
(0.022996642 -0.039483834 0)
(0.025549616 -0.043674487 5.5678527e-19)
(0.028519102 -0.04779161 2.5701792e-19)
(0.038693109 -0.061366912 0)
(0.043543297 -0.048827479 2.572798e-19)
(0.026871071 -0.029567514 0)
(0.029313747 -0.030632073 -2.6786993e-19)
(0.030087042 -0.031485808 -2.55907e-19)
(0.034245511 -0.035393245 2.3748021e-19)
(0.042165037 -0.040584064 -2.3302253e-22)
(0.038141559 -0.030935021 0)
(0.027003401 -0.021346457 4.6764038e-19)
(0.02945247 -0.022528385 -5.0263826e-25)
(0.032582616 -0.024841781 -2.0402944e-22)
(0.039137262 -0.027800552 -8.2848097e-19)
(0.031555417 -0.01921048 3.9671088e-19)
(0.020190658 -0.011976222 0)
(0.021629313 -0.012334478 0)
(0.024980058 -0.014354663 0)
(0.024476195 -0.012951608 6.9659206e-19)
(0.019963376 -0.010431168 6.7252487e-19)
(0.021777752 -0.011209879 0)
(0.023650975 -0.012218209 6.038411e-19)
(0.034315029 0.0096795116 -8.0955506e-23)
(0.028016192 0.0079497173 -3.5362853e-19)
(0.036164352 0.011553275 -8.3528759e-23)
(0.059792721 0.024278715 -3.4744843e-19)
(0.054354426 0.033202848 3.4897699e-19)
(0.041520411 0.025232486 0)
(0.038893771 0.024425715 4.1434685e-19)
(0.042535502 0.02709748 0)
(0.040657766 0.031068404 0)
(0.033726553 0.026329292 4.4330794e-19)
(0.032089261 0.02524256 4.7349416e-19)
(0.02950343 0.023693598 0)
(0.034875079 0.028498364 -5.034164e-19)
(0.032632184 0.032883061 -4.8629754e-22)
(0.026781728 0.027830636 2.5876979e-19)
(0.024469181 0.025799962 0)
(0.023535713 0.024765614 2.9035483e-19)
(0.021452712 0.023390927 6.3737072e-25)
(0.027896102 0.031057799 0)
(0.0209211 0.035133191 -2.6876232e-19)
(0.015435369 0.026125059 -2.8320758e-22)
(0.014209373 0.024619422 1.5550957e-19)
(0.012421807 0.021566368 0)
(0.011697533 0.020425629 0)
(0.010863738 0.018992808 1.7760867e-19)
(0.01030011 0.018223437 0)
(0.010344624 0.018778585 -7.4184713e-22)
(0.008550244 0.017916404 7.2523484e-22)
(0.00722309 0.015250781 0)
(0.0066318351 0.01411405 0)
(0.0059526274 0.012632665 -8.3409254e-22)
(0.0053879014 0.011439822 2.231176e-19)
(0.0049770904 0.010483905 -2.3025122e-19)
(0.0042163215 0.0090022549 -1.1916507e-19)
(0.0043579864 0.0094295137 -1.2229059e-19)
(0.0021489902 0.0075378851 5.4736377e-20)
(0.0011771589 0.0040058202 5.9056327e-20)
(0.00085056587 0.0028617201 -6.1690262e-20)
(0.00040544729 0.00080871828 -6.3896625e-20)
(0.00016929193 -0.00028183948 2.0281813e-21)
(-0.00014986796 -0.0018726933 6.6577755e-20)
(-0.0003826509 -0.0030765888 -3.69699e-26)
(-0.00067605452 -0.0046241924 -1.0816498e-21)
(-0.00092097241 -0.0060174437 0)
(-0.0012433649 -0.0078245537 0)
(-0.0014791102 -0.0095229755 -7.0732225e-20)
(-0.0019229497 -0.012159551 0)
(-0.0012777146 -0.013848887 3.5898549e-20)
(-0.0012173677 -0.01476412 3.6028186e-20)
(-0.0012721514 -0.016454419 -2.6174679e-26)
(-0.0014145099 -0.01819789 -3.5478791e-20)
(-0.0015719281 -0.02007963 -2.8163201e-22)
(-0.0017203027 -0.021967067 -2.7987878e-22)
(-0.0017440502 -0.024022529 -3.5154038e-20)
(-0.0016970466 -0.026791376 6.8081525e-20)
(-0.00050545722 -0.030793193 6.8712483e-23)
(0.0023397257 -0.030282424 -3.4631999e-20)
(0.0026617661 -0.028081772 -7.1651875e-20)
(0.0030543192 -0.028239848 -3.6155161e-20)
(0.0032268225 -0.028846866 -7.1874899e-20)
(0.0034537443 -0.029861902 1.0918885e-21)
(0.0037073955 -0.031622764 -5.3406287e-22)
(0.0040923811 -0.033049318 -3.2917231e-20)
(0.0046849137 -0.036733299 3.1947966e-20)
(0.0069886603 -0.036935905 -6.2897181e-20)
(0.0067911627 -0.034488545 -1.005137e-21)
(0.0070714102 -0.034264098 0)
(0.0071641025 -0.034365185 -6.3038495e-20)
(0.0073996814 -0.035059107 -1.2254231e-19)
(0.0077005039 -0.036195449 0)
(0.0080759001 -0.037652091 -5.7474662e-20)
(0.0085785916 -0.039658546 1.109776e-19)
(0.0091960049 -0.04202671 0)
(0.010190166 -0.045502493 7.9016023e-22)
(0.011799006 -0.05027594 -7.3183504e-22)
(0.016149472 -0.057984444 -7.3610797e-22)
(0.021657797 -0.053166778 7.3642106e-22)
(0.018549348 -0.044179499 9.8674583e-20)
(0.018668349 -0.042386019 -7.8353501e-22)
(0.018495866 -0.041801073 1.960021e-19)
(0.018908277 -0.042339046 7.3969536e-22)
(0.019896156 -0.044351728 0)
(0.020994206 -0.0461552 -1.4197509e-24)
(0.024001168 -0.052404008 6.3012398e-22)
(0.028145776 -0.051545428 -6.4792074e-22)
(0.025740357 -0.045716728 2.7840647e-25)
(0.02575199 -0.044640644 -1.6392644e-19)
(0.026464877 -0.04559653 0)
(0.027800373 -0.047542906 0)
(0.030540819 -0.051917302 -2.8091779e-19)
(0.033995341 -0.056446108 -2.5574422e-19)
(0.044557149 -0.069985633 0)
(0.051489347 -0.058022962 -2.5178612e-19)
(0.035916516 -0.039694529 -2.6163746e-22)
(0.036903519 -0.038626093 -2.6535261e-22)
(0.037421011 -0.039075132 5.025083e-22)
(0.041675054 -0.042860253 -2.3157643e-22)
(0.049974897 -0.047964278 -2.3313383e-22)
(0.047050857 -0.0383248 2.2171087e-22)
(0.03581755 -0.028411337 -4.6891784e-19)
(0.037250228 -0.02847429 -2.1991739e-22)
(0.040388449 -0.030690047 8.3280378e-19)
(0.047236929 -0.033521399 4.1472131e-19)
(0.040136859 -0.024566797 -3.9286406e-19)
(0.02791617 -0.016627931 3.9954168e-19)
(0.028350155 -0.016172587 1.8609858e-22)
(0.03164887 -0.018162498 0)
(0.031223263 -0.016550092 -6.9483794e-19)
(0.026461225 -0.013843608 8.2012885e-23)
(0.02796896 -0.014385371 -7.7137245e-23)
(0.029950034 -0.015454039 -5.9859673e-19)
(0.041231306 0.011632994 -3.3548047e-19)
(0.036185608 0.010344441 -3.3382101e-25)
(0.045991624 0.014787996 3.3960348e-19)
(0.068044107 0.027765189 3.4444909e-19)
(0.061009993 0.037038405 0)
(0.048519715 0.029366697 0)
(0.045976885 0.028869596 -4.2027476e-19)
(0.049114627 0.031293943 -2.0801059e-22)
(0.046332421 0.035253097 4.1288274e-22)
(0.039360225 0.030614479 -4.4530475e-19)
(0.037598562 0.02953401 -4.7944711e-19)
(0.035337905 0.028400971 -2.4753069e-22)
(0.04016932 0.032858292 5.0808081e-19)
(0.037034557 0.037113659 0)
(0.031046924 0.032095633 -1.1824703e-24)
(0.028576701 0.030044543 -2.7514541e-22)
(0.027616328 0.029038462 2.9568972e-19)
(0.025870847 0.028255086 -3.0537002e-19)
(0.031543539 0.03512978 0)
(0.023552495 0.039009234 2.6896349e-19)
(0.017904391 0.030003475 5.755564e-22)
(0.016371221 0.028177105 -1.5976682e-19)
(0.014441668 0.02493204 1.6733772e-19)
(0.013573965 0.023591721 -6.8598086e-22)
(0.01264503 0.022021719 1.8360121e-19)
(0.011994816 0.021161606 1.9133073e-19)
(0.01187728 0.021448103 -7.6208122e-22)
(0.009842046 0.02037958 0)
(0.0083966332 0.017550259 0)
(0.0076847992 0.016206017 0)
(0.0069145435 0.014535023 -8.5362895e-22)
(0.0062636348 0.013168031 -2.2628205e-19)
(0.005767651 0.012024259 3.566699e-25)
(0.0049405727 0.010434936 9.4648416e-22)
(0.0049537001 0.010537263 1.2379909e-19)
(0.0025568165 0.0083728073 5.4415939e-20)
(0.001469932 0.0046881196 -5.9261057e-20)
(0.0010568996 0.0032895843 1.2405298e-19)
(0.00055786798 0.001032307 0)
(0.00027120217 -0.0002702709 2.1251393e-27)
(-8.6329522e-05 -0.0020515942 0)
(-0.00035548279 -0.0034499094 6.9857037e-20)
(-0.00068009153 -0.0051855609 -1.0875435e-21)
(-0.00095178269 -0.0067704681 -1.0943281e-21)
(-0.0012975187 -0.0087620982 7.1249547e-20)
(-0.0015391534 -0.010645236 1.085644e-21)
(-0.0019940692 -0.01340867 -1.0829735e-21)
(-0.001351491 -0.015416661 -3.4186243e-20)
(-0.0012947575 -0.016636703 -7.1763817e-20)
(-0.0013382193 -0.018470911 7.0311577e-20)
(-0.0014802795 -0.020373461 3.5019129e-20)
(-0.0016447378 -0.022416434 -3.4865095e-20)
(-0.0018003496 -0.024473121 3.4298918e-20)
(-0.0018037812 -0.026680558 3.9627523e-22)
(-0.0016717766 -0.029378946 -3.2581424e-20)
(-0.00039922746 -0.033316953 6.5813824e-23)
(0.0025517196 -0.033414855 3.3762728e-20)
(0.0030073839 -0.031864676 2.7539978e-22)
(0.0034843234 -0.03213531 7.1667493e-20)
(0.0037210252 -0.032792837 -5.489415e-22)
(0.0039922944 -0.033858596 -3.4352581e-20)
(0.0042836101 -0.035653752 3.3544e-20)
(0.0047393414 -0.037191149 0)
(0.0053604607 -0.040725498 -3.1050859e-20)
(0.0078137126 -0.041273173 0)
(0.0077648312 -0.039421534 0)
(0.0081094309 -0.039260242 0)