/*--------------------------------*- C++ -*----------------------------------*\
| =========                 |                                                 |
| \\      /  F ield         | OpenFOAM: The Open Source CFD Toolbox           |
|  \\    /   O peration     | Version:  v2006                                 |
|   \\  /    A nd           | Website:  www.openfoam.com                      |
|    \\/     M anipulation  |                                                 |
\*---------------------------------------------------------------------------*/
FoamFile
{
    version     2.0;
    format      ascii;
    class       volVectorField;
    location    "4000";
    object      wallShearStress;
}
// * * * * * * * * * * * * * * * * * * * * * * * * * * * * * * * * * * * * * //

dimensions      [1 -1 -2 0 0 0 0];


internalField   uniform (0 0 0);

boundaryField
{
    Side
    {
        type            empty;
    }
    Inlet
    {
        type            calculated;
        value           uniform (0 0 0);
    }
    Airfoil
    {
        type            calculated;
        value           nonuniform List<vector> 
336
(
(-4.8342717e-05 -1.3716384e-05 -3.0185734e-21)
(-2.6803711e-05 -7.6881314e-06 -3.1855431e-21)
(-2.3123983e-05 -7.1653236e-06 -6.7070576e-21)
(-9.2028401e-05 -3.5280118e-05 -4.3320565e-25)
(-0.00010146869 -6.1678502e-05 3.7001791e-21)
(-6.389293e-05 -3.9214316e-05 1.4693679e-39)
(-5.2076806e-05 -3.2541836e-05 1.4767148e-37)
(-6.3231279e-05 -3.9536383e-05 -1.0381282e-24)
(-7.1364227e-05 -5.3938238e-05 1.0858e-24)
(-5.2058339e-05 -4.0756188e-05 6.6006763e-41)
(-5.1052703e-05 -3.980473e-05 -1.1868278e-24)
(-3.656e-05 -2.9279391e-05 5.0714599e-21)
(-5.2506403e-05 -4.1733003e-05 -5.2720778e-21)
(-5.8618149e-05 -5.8277956e-05 2.749523e-21)
(-4.3846876e-05 -4.5578146e-05 5.7134916e-21)
(-3.8165563e-05 -3.9980629e-05 -2.9694396e-21)
(-3.7843113e-05 -3.9339478e-05 -3.0858444e-21)
(-2.3612925e-05 -2.5738954e-05 3.1959575e-21)
(-4.3969416e-05 -4.6990808e-05 1.613444e-24)
(-4.0421021e-05 -6.7054803e-05 -8.0356059e-41)
(-2.4141136e-05 -4.122339e-05 -2.8698593e-42)
(-2.3232463e-05 -3.9475898e-05 -3.5321619e-24)
(-1.8167358e-05 -3.1250725e-05 -1.8555785e-21)
(-1.7029113e-05 -2.921361e-05 -3.728472e-24)
(-1.4708095e-05 -2.5332537e-05 7.6483028e-24)
(-1.2972167e-05 -2.2460698e-05 4.0089008e-21)
(-1.2953823e-05 -2.300359e-05 -5.8774718e-39)
(-1.0290822e-05 -2.1493955e-05 4.11478e-24)
(-7.3959268e-06 -1.5660912e-05 -2.165374e-21)
(-6.4092605e-06 -1.351623e-05 8.9631444e-38)
(-4.7955146e-06 -1.0147703e-05 -1.4693679e-39)
(-3.6536357e-06 -7.6811011e-06 2.3168716e-21)
(-2.3417285e-06 -4.8873049e-06 2.3660466e-21)
(-8.2436502e-07 -1.592091e-06 -1.2068922e-21)
(7.5163429e-07 1.7213546e-06 1.2303581e-21)
(1.3697245e-06 6.6080284e-06 2.2040519e-39)
(2.0772561e-06 9.7537659e-06 4.9453071e-24)
(2.5226103e-06 1.2047443e-05 -1.0015554e-23)
(3.1841603e-06 1.5047017e-05 6.5374564e-22)
(3.6181181e-06 1.7279352e-05 6.5601997e-22)
(4.2473443e-06 2.0247551e-05 -5.8878032e-38)
(4.7410797e-06 2.274919e-05 6.6964892e-22)
(5.4212343e-06 2.6063724e-05 -6.706298e-22)
(5.9815654e-06 2.8940656e-05 -5.3264536e-24)
(6.9109822e-06 3.3563699e-05 6.8720731e-22)
(7.5621762e-06 3.7175731e-05 6.9208289e-22)
(9.2901966e-06 4.7606178e-05 1.3887201e-21)
(5.1343044e-06 4.6838815e-05 5.4919804e-24)
(4.2182334e-06 4.2273133e-05 -3.5470486e-22)
(4.8611206e-06 4.8091407e-05 -3.6002733e-22)
(5.0443331e-06 5.0886357e-05 -3.5654104e-22)
(5.4775484e-06 5.6087117e-05 -3.5956546e-22)
(6.0367365e-06 6.214287e-05 -3.6211982e-22)
(6.5122808e-06 7.0080716e-05 -1.4169816e-24)
(7.6535195e-06 8.5751107e-05 3.6278809e-22)
(2.5046139e-06 0.00010388757 -1.8212796e-22)
(-7.0648072e-06 7.7532291e-05 -7.2528692e-22)
(-6.0307081e-06 5.7552576e-05 3.6317993e-22)
(-7.1038039e-06 6.709231e-05 -3.6734198e-40)
(-7.2869616e-06 6.8261735e-05 -3.6023352e-22)
(-7.8503131e-06 7.2280556e-05 0)
(-8.9147826e-06 8.0227818e-05 0)
(-9.4411546e-06 8.3704521e-05 -3.4914274e-22)
(-1.3110247e-05 0.00010663337 3.4548903e-22)
(-1.9010204e-05 9.3285271e-05 -6.8977331e-22)
(-1.413142e-05 6.9855178e-05 6.9203142e-22)
(-1.6995523e-05 8.027196e-05 -5.3223774e-24)
(-1.7187796e-05 8.1426253e-05 -5.274897e-24)
(-1.8424155e-05 8.6245295e-05 7.2969272e-28)
(-1.9752112e-05 9.1710092e-05 5.1726204e-24)
(-2.1298916e-05 9.8043262e-05 -6.5490588e-22)
(-2.3414635e-05 0.00010653719 -1.102026e-39)
(-2.5912466e-05 0.00011659583 -1.2738496e-21)
(-3.0065656e-05 0.00013246727 6.2596353e-22)
(-3.6508846e-05 0.00015641559 5.5101298e-40)
(-5.6981231e-05 0.00019689598 1.2291938e-21)
(-5.3361182e-05 0.00012460195 -4.6960687e-24)
(-2.5041548e-05 6.2662521e-05 -1.1831262e-21)
(-3.9320171e-05 8.7406373e-05 4.5516056e-24)
(-3.9211908e-05 8.7969801e-05 2.2791284e-21)
(-4.2462518e-05 9.4201845e-05 2.2388957e-21)
(-4.8842609e-05 0.00010690044 -4.2660672e-24)
(-5.2008103e-05 0.00011368502 -1.6333705e-27)
(-7.1164218e-05 0.00015084959 1.4840616e-37)
(-7.2777623e-05 0.0001287601 -2.0249162e-21)
(-4.7857982e-05 8.5793677e-05 3.9591186e-21)
(-5.7226494e-05 9.7524833e-05 -3.863662e-21)
(-6.25842e-05 0.00010609048 7.3468397e-39)
(-6.8810266e-05 0.00011591332 2.4489541e-27)
(-8.3075161e-05 0.00013792747 2.2687959e-37)
(-9.4372722e-05 0.00015562248 0)
(-0.00015340255 0.00023146753 -1.636629e-24)
(-0.00011474018 0.0001233264 3.155916e-24)
(-1.2869092e-05 2.102271e-05 -3.1480421e-21)
(-6.8612232e-05 7.1020731e-05 -3.6013415e-28)
(-6.7978686e-05 7.1660317e-05 -1.4266128e-24)
(-8.9223646e-05 9.1942912e-05 -2.9960859e-28)
(-0.00012210086 0.00011455476 -1.6350906e-26)
(-7.5904984e-05 6.0779247e-05 -5.1726931e-21)
(-2.9996378e-05 2.5603276e-05 4.988747e-21)
(-6.0855969e-05 4.6777911e-05 -1.1666598e-24)
(-7.1335135e-05 5.4800534e-05 -4.5685839e-21)
(-9.7143119e-05 6.7718496e-05 -1.2746767e-37)
(-5.1299382e-05 3.1061727e-05 -4.1729936e-21)
(-1.525421e-05 1.0125729e-05 4.0021816e-21)
(-3.416379e-05 2.0030938e-05 7.6283493e-21)
(-4.7023432e-05 2.7258116e-05 -8.8682702e-25)
(-4.3027608e-05 2.2784844e-05 4.2255771e-25)
(-2.6877913e-05 1.4554152e-05 -6.6144153e-21)
(-3.8620439e-05 2.0196454e-05 3.8694579e-25)
(-4.4546775e-05 2.3226631e-05 -1.4105932e-37)
(-1.6556412e-05 -1.409422e-06 -1.9592177e-20)
(-1.9808524e-05 -3.1008461e-06 -4.1629364e-20)
(-1.535983e-05 -1.8998345e-06 2.2021951e-20)
(-1.4215789e-05 -1.2186489e-06 -2.1974276e-26)
(-1.2492999e-05 -6.2123693e-07 2.2764325e-26)
(-1.1684395e-05 -1.7344768e-07 1.4349296e-41)
(-1.1118339e-05 1.5108496e-07 3.2112923e-21)
(-1.1276354e-05 4.1346069e-07 -6.6298889e-21)
(-1.20249e-05 5.7564991e-07 2.597743e-26)
(-1.3192133e-05 6.9064936e-07 -1.1479437e-41)
(-1.4646238e-05 7.1998362e-07 7.2551034e-21)
(-1.5836146e-05 6.7982375e-07 4.5917748e-41)
(-1.6784676e-05 6.0916494e-07 2.9026104e-26)
(-1.7367538e-05 5.4281262e-07 -3.0024518e-26)
(-1.7780797e-05 4.8964845e-07 -3.084577e-26)
(-1.8142097e-05 4.4455437e-07 -8.243384e-21)
(-1.8578175e-05 3.9197552e-07 -3.2573362e-26)
(-1.9038201e-05 3.2385379e-07 2.1865425e-21)
(-1.9397945e-05 2.5161946e-07 2.2267945e-21)
(-1.9629092e-05 1.9096792e-07 -1.1580974e-21)
(-1.9831376e-05 1.4037145e-07 1.1806084e-21)
(-2.005116e-05 8.7033116e-08 8.6095778e-42)
(-2.0423883e-05 2.3049411e-08 -1.8609244e-42)
(-2.0786762e-05 -6.4814347e-08 3.1874541e-22)
(-2.0947095e-05 -1.3380066e-07 6.544819e-22)
(-2.1078049e-05 -1.8745699e-07 -2.7066649e-21)
(-2.1171832e-05 -2.3512029e-07 1.3794808e-21)
(-2.1342907e-05 -2.8221354e-07 2.8698593e-42)
(-2.1622581e-05 -3.4728559e-07 -4.4734087e-26)
(-2.1844957e-05 -4.1776122e-07 4.5666573e-26)
(-2.1960571e-05 -4.7916754e-07 -4.7028048e-26)
(-2.2243983e-05 -5.4430498e-07 -3.1853122e-21)
(-2.2599277e-05 -6.4160861e-07 6.5151131e-21)
(-2.2678055e-05 -7.1198738e-07 -5.1029159e-26)
(-2.2752607e-05 -7.5647634e-07 1.4693679e-38)
(-2.2760991e-05 -7.9521974e-07 -3.5601575e-21)
(-2.2657836e-05 -8.00511e-07 2.7868983e-26)
(-2.2565579e-05 -7.9819172e-07 0)
(-2.2601467e-05 -7.9669882e-07 3.9081037e-21)
(-2.2696684e-05 -8.1579369e-07 -4.0181034e-21)
(-2.2838908e-05 -8.3566103e-07 4.1362638e-21)
(-2.3122838e-05 -8.8189083e-07 4.2725624e-21)
(-2.3090038e-05 -9.1372499e-07 -2.220944e-21)
(-2.3351974e-05 -9.4465434e-07 -2.291691e-21)
(-2.3616092e-05 -1.0345776e-06 -1.1200487e-37)
(-2.4247941e-05 -1.1407491e-06 2.5837606e-38)
(-2.5339688e-05 -1.3799111e-06 9.1835496e-41)
(-2.5278993e-05 -1.5307766e-06 -5.2577329e-21)
(-2.6293217e-05 -1.7083926e-06 0)
(-2.5912718e-05 -1.9038641e-06 -5.4198764e-27)
(-2.7405541e-05 -2.0659332e-06 5.4560134e-27)
(-2.8331613e-05 -2.5696506e-06 -6.1407831e-21)
(-2.7398081e-05 -2.5118459e-06 6.3951841e-21)
(-2.7488566e-05 -2.6791905e-06 -6.6641413e-21)
(-2.7452118e-05 -2.7172261e-06 -1.2948805e-37)
(-2.7133121e-05 -2.8431978e-06 -2.2694029e-42)
(-2.9562529e-05 -3.2356586e-06 -2.9071998e-26)
(-3.0668756e-05 -3.863572e-06 -3.9922821e-21)
(-2.868404e-05 -3.6134098e-06 0)
(-2.693108e-05 -3.3945764e-06 7.2829477e-42)
(-2.9981669e-05 -3.7907745e-06 0)
(-3.1924995e-05 -4.703989e-06 -4.8880144e-21)
(-2.8936955e-05 -4.2677307e-06 0)
(-2.8085743e-05 -4.1291891e-06 -3.5873241e-42)
(-2.7197248e-05 -4.0002284e-06 -1.7635943e-25)
(-2.8412714e-05 -4.3279941e-06 3.7228144e-25)
(-2.7634669e-05 -4.4406561e-06 -1.9930681e-25)
(-2.442386e-05 -3.9257939e-06 -6.9305739e-21)
(-2.2042977e-05 -3.5072184e-06 -2.2630173e-25)
(-1.930107e-05 -3.0659532e-06 2.42969e-25)
(-1.8375097e-05 -2.9643908e-06 2.600289e-25)
(-2.3270236e-05 -4.0748665e-06 3.1066669e-30)
(-6.3453051e-06 -1.1582014e-06 2.4797038e-21)
(-3.5099565e-05 -6.3506567e-06 -2.6756238e-21)
(-3.7134564e-05 -2.0930771e-06 2.9167653e-29)
(-3.5680298e-05 -2.0167428e-06 3.041988e-28)
(-3.6527829e-05 -2.0608132e-06 -2.4797657e-21)
(-3.6629957e-05 -2.0652185e-06 -4.596714e-27)
(-3.6626722e-05 -2.1211677e-06 -2.3420199e-21)
(-3.6437785e-05 -2.1159184e-06 -8.6884352e-27)
(-3.6902729e-05 -2.1417279e-06 -2.2147514e-21)
(-3.7453169e-05 -2.2105425e-06 6.621676e-31)
(-3.6726113e-05 -2.3331985e-06 -4.1899643e-21)
(-3.5954941e-05 -2.2878059e-06 1.1295833e-30)
(-3.7522495e-05 -2.3839028e-06 -1.5133952e-26)
(-3.6664219e-05 -2.5729541e-06 -3.8608866e-21)
(-3.5061712e-05 -2.5468204e-06 2.4661455e-30)
(-3.5944967e-05 -2.6094795e-06 -2.7925214e-26)
(-3.5813778e-05 -2.7552796e-06 -2.7292308e-29)
(-3.4403014e-05 -2.7816941e-06 -2.6494355e-26)
(-3.4543964e-05 -2.7933822e-06 2.5746324e-26)
(-3.4724629e-05 -2.9130967e-06 -3.2843712e-21)
(-3.3701034e-05 -2.92014e-06 -6.4008744e-21)
(-3.3970749e-05 -2.9432125e-06 2.379642e-26)
(-3.396677e-05 -3.0441794e-06 2.5460925e-29)
(-3.3267418e-05 -3.0230275e-06 -5.9283137e-21)
(-3.4040078e-05 -3.1008337e-06 -1.1560902e-20)
(-3.3426941e-05 -3.2012936e-06 -4.3014424e-26)
(-3.3101106e-05 -3.1713602e-06 -5.4905574e-21)
(-3.3612552e-05 -3.3281302e-06 -5.3391812e-21)
(-3.2634982e-05 -3.3232722e-06 4.2730482e-37)
(-3.3302855e-05 -3.4255248e-06 -5.081914e-21)
(-3.2458138e-05 -3.5242988e-06 -3.7790873e-26)
(-3.2512951e-05 -3.5305414e-06 -9.6803394e-21)
(-3.2243863e-05 -3.7085249e-06 -3.6044487e-26)
(-3.1692626e-05 -3.6717659e-06 9.199753e-21)
(-3.1706042e-05 -3.8456413e-06 -8.9553826e-21)
(-3.1062989e-05 -3.831069e-06 -8.743594e-21)
(-3.0931623e-05 -3.9549915e-06 -1.4374155e-30)
(-3.0522246e-05 -3.9693986e-06 8.3357823e-21)
(-3.0254063e-05 -4.0596265e-06 -8.1396726e-21)
(-3.0135374e-05 -4.0940372e-06 -3.0321357e-26)
(-2.9772216e-05 -4.1937135e-06 1.5435099e-20)
(-2.9685738e-05 -4.2203802e-06 1.507265e-20)
(-2.937164e-05 -4.3787906e-06 -2.943331e-20)
(-2.8613757e-05 -4.3431901e-06 -2.7349657e-26)
(-2.862269e-05 -4.4963363e-06 1.4031823e-20)
(-2.7657299e-05 -4.4750152e-06 1.8367099e-40)
(-2.7547557e-05 -4.5309295e-06 1.7669149e-37)
(-2.7186313e-05 -4.5916421e-06 -1.2984182e-20)
(-2.6746209e-05 -4.5986884e-06 1.267245e-20)
(-2.6727729e-05 -4.6755363e-06 -1.1196282e-30)
(-2.6433549e-05 -4.7591404e-06 2.3005596e-26)
(-2.5741302e-05 -4.7951575e-06 2.3526579e-20)
(-2.5155214e-05 -4.8097536e-06 2.2937372e-20)
(-2.4708214e-05 -4.8443194e-06 -2.2289226e-20)
(-2.4222802e-05 -4.8583467e-06 -1.5643473e-30)
(-2.3827875e-05 -4.8905043e-06 -1.4736176e-30)
(-2.3340816e-05 -4.9180708e-06 -2.0578803e-20)
(-2.2722109e-05 -4.93049e-06 -4.0044477e-20)
(-2.1969796e-05 -4.9152997e-06 -3.7132756e-26)
(-2.1171313e-05 -4.8622361e-06 1.8038676e-26)
(-2.0588785e-05 -4.8263632e-06 3.672893e-20)
(-1.9991709e-05 -4.7840222e-06 4.5917748e-41)
(-1.9459338e-05 -4.7697674e-06 3.4522806e-20)
(-1.8480515e-05 -4.6608985e-06 -3.3418735e-20)
(-1.7800834e-05 -4.6296333e-06 3.2208686e-20)
(-1.6228153e-05 -4.3118475e-06 -6.1968543e-20)
(-1.6686522e-05 -4.565424e-06 1.4228205e-26)
(-1.2086016e-05 -3.4184518e-06 5.6744891e-20)
(-1.7315427e-05 -5.0682996e-06 1.0758617e-19)
(-1.4891918e-06 -9.6705014e-07 -1.4693679e-39)
(-4.6322108e-05 2.3420362e-05 4.130883e-21)
(-4.3070011e-05 2.1844422e-05 -9.8706887e-25)
(-4.8033626e-05 2.4167418e-05 -1.078395e-29)
(-4.9481723e-05 2.4902308e-05 4.7073025e-25)
(-5.4567474e-05 2.7346293e-05 -3.7681576e-21)
(-5.6136583e-05 2.7453044e-05 -3.6797784e-21)
(-5.1588752e-05 2.4818961e-05 2.2040519e-39)
(-5.1388188e-05 2.4653083e-05 3.0929974e-28)
(-5.4199522e-05 2.5918516e-05 6.9054935e-21)
(-5.6166068e-05 2.683473e-05 -6.7711216e-21)
(-6.0473413e-05 2.8517337e-05 -6.6145703e-21)
(-5.6689036e-05 2.5917503e-05 -6.4925734e-21)
(-5.2878678e-05 2.4198478e-05 -6.3736128e-21)
(-5.6944845e-05 2.5915042e-05 -3.8075409e-25)
(-5.7303476e-05 2.6099339e-05 -6.1236307e-21)
(-6.283643e-05 2.848907e-05 -3.663464e-25)
(-6.0516627e-05 2.6517494e-05 -5.8907426e-21)
(-5.5940943e-05 2.4556572e-05 4.5917748e-41)
(-6.1047528e-05 2.6636191e-05 -5.6865346e-21)
(-6.106779e-05 2.6678405e-05 5.5869255e-21)
(-6.966835e-05 3.0277702e-05 3.3610093e-25)
(-6.4794993e-05 2.6437811e-05 5.384572e-21)
(-5.4644877e-05 2.2233616e-05 -3.2328695e-25)
(-6.0153576e-05 2.4252225e-05 -1.9192184e-41)
(-6.0185686e-05 2.429456e-05 -4.1286656e-37)
(-6.7014322e-05 2.6935325e-05 3.0749098e-25)
(-6.3938899e-05 2.4475814e-05 -1.5557415e-29)
(-5.7176974e-05 2.1822788e-05 -2.9778901e-25)
(-6.2273795e-05 2.3609351e-05 4.802595e-21)
(-6.2600474e-05 2.3753445e-05 1.4434453e-25)
(-7.0809195e-05 2.6748622e-05 -1.4198226e-25)
(-6.5973501e-05 2.3375739e-05 -7.689125e-28)
(-5.8314432e-05 2.0707673e-05 -1.4693679e-39)
(-6.5267994e-05 2.2994044e-05 -4.4439563e-21)
(-6.671356e-05 2.3521036e-05 2.6713156e-25)
(-7.4568974e-05 2.5704085e-05 -1.3160167e-25)
(-6.5692194e-05 2.0877313e-05 -4.2470189e-21)
(-5.7971718e-05 1.8449446e-05 4.1889906e-21)
(-6.4716959e-05 2.0432791e-05 -8.2568496e-21)
(-6.8461824e-05 2.1607135e-05 4.4081038e-39)
(-7.0977309e-05 2.1378623e-05 8.0230698e-21)
(-6.2604788e-05 1.798132e-05 -7.9123906e-21)
(-6.2643411e-05 1.7925074e-05 -7.8077462e-21)
(-6.5856608e-05 1.8790659e-05 -7.7007463e-21)
(-7.5371804e-05 2.1430204e-05 7.5967685e-21)
(-6.9960802e-05 1.7845593e-05 2.2872677e-25)
(-5.8821556e-05 1.4806279e-05 -1.1291319e-25)
(-6.5533105e-05 1.635072e-05 -1.1147216e-25)
(-6.9577703e-05 1.7347223e-05 -7.2094971e-21)
(-7.4498641e-05 1.7563135e-05 1.08396e-25)
(-6.3491802e-05 1.3471431e-05 -1.0702748e-25)
(-5.9754294e-05 1.2643893e-05 -5.6051939e-45)
(-6.4520195e-05 1.3580844e-05 3.0756282e-38)
(-7.3760329e-05 1.5485008e-05 3.4382708e-37)
(-6.8072016e-05 1.2344439e-05 0)
(-5.8298356e-05 1.0441867e-05 0)
(-6.5142065e-05 1.1571795e-05 -2.21636e-37)
(-7.2170141e-05 1.2802946e-05 -9.8131041e-26)
(-7.2037333e-05 1.1083414e-05 9.7027883e-26)
(-5.9252697e-05 8.1009733e-06 6.2886637e-21)
(-6.0293798e-05 8.1872862e-06 -9.4774392e-26)
(-6.7206855e-05 9.0878055e-06 3.0641364e-21)
(-7.2184142e-05 8.7117782e-06 9.248517e-26)
(-5.8634654e-05 5.1888925e-06 -2.9979204e-21)
(-5.2169393e-05 4.5871338e-06 2.9691876e-21)
(-5.8647705e-05 5.1205957e-06 9.1835496e-41)
(-6.5567483e-05 5.4413666e-06 4.4162774e-26)
(-5.7368338e-05 2.969597e-06 4.8702373e-30)
(-4.9593858e-05 2.5453937e-06 -8.661357e-26)
(-5.4161526e-05 2.7567469e-06 -1.3995957e-21)
(-6.4328682e-05 3.2762855e-06 -1.3846861e-21)
(-5.5340708e-05 4.8934405e-07 -3.4274637e-22)
(-4.2462041e-05 3.592858e-07 -3.3983516e-22)
(-4.8684915e-05 4.0819394e-07 3.3475304e-22)
(-5.5211386e-05 4.7959934e-07 2.916638e-30)
(-4.8703067e-05 -1.2869935e-06 -6.5748376e-22)
(-3.7297209e-05 -1.0994679e-06 -1.3538656e-29)
(-4.1772136e-05 -1.2183374e-06 -1.2854183e-21)
(-4.458281e-05 -1.2889693e-06 1.9448538e-26)
(-4.1224199e-05 -2.0323222e-06 -2.2958874e-41)
(-3.5111393e-05 -1.7969895e-06 -1.246107e-21)
(-3.7559821e-05 -1.9107132e-06 -1.2361563e-21)
(-3.7854611e-05 -1.9223047e-06 -2.2958874e-41)
)
;
    }
    Outlet
    {
        type            calculated;
        value           uniform (0 0 0);
    }
    Ground
    {
        type            calculated;
        value           uniform (0 0 0);
    }
}


// ************************************************************************* //
