/*--------------------------------*- C++ -*----------------------------------*\
| =========                 |                                                 |
| \\      /  F ield         | OpenFOAM: The Open Source CFD Toolbox           |
|  \\    /   O peration     | Version:  v2006                                 |
|   \\  /    A nd           | Website:  www.openfoam.com                      |
|    \\/     M anipulation  |                                                 |
\*---------------------------------------------------------------------------*/
FoamFile
{
    version     2.0;
    format      ascii;
    class       volScalarField;
    location    "4000";
    object      yPlus;
}
// * * * * * * * * * * * * * * * * * * * * * * * * * * * * * * * * * * * * * //

dimensions      [0 0 0 0 0 0 0];


internalField   uniform 0;

boundaryField
{
    Side
    {
        type            empty;
    }
    Inlet
    {
        type            calculated;
        value           uniform 0;
    }
    Airfoil
    {
        type            calculated;
        value           nonuniform List<scalar> 
336
(
0.41085145
0.30617429
0.28562411
0.56876231
0.59110745
0.47076114
0.42737306
0.47236925
0.4973291
0.4267115
0.42414342
0.36249782
0.43595836
0.4552787
0.39626162
0.37322079
0.37375217
0.30138933
0.4116543
0.38815502
0.30731795
0.3052828
0.27519285
0.2701415
0.25523299
0.24384582
0.24766365
0.22670613
0.1967616
0.1862006
0.16420969
0.14550111
0.11817216
0.069106049
0.072006031
0.12052228
0.15022664
0.17103184
0.19572179
0.21443406
0.2370893
0.25630388
0.27941675
0.29939168
0.32732546
0.34908193
0.39854389
0.38812203
0.37294252
0.40191174
0.41676114
0.44006858
0.46484835
0.4941288
0.54614405
0.60077713
0.51941704
0.44797945
0.48319686
0.48580325
0.4971281
0.5196877
0.52554994
0.58732539
0.5595812
0.47838421
0.506464
0.50239894
0.50857999
0.51500952
0.52216859
0.53308897
0.54550875
0.56826466
0.60315711
0.68978537
0.60654642
0.420515
0.4925189
0.484956
0.49324417
0.51641231
0.52274588
0.59277278
0.58823532
0.47635558
0.50349099
0.51776244
0.53376027
0.5749893
0.60267864
0.75250894
0.66677938
0.25204054
0.50261061
0.49886253
0.56403161
0.65796524
0.52640047
0.3337054
0.46351196
0.49969232
0.58263725
0.42804819
0.23587261
0.34610563
0.40460411
0.38788855
0.30687446
0.3657528
0.39204681
0.22864638
0.24718367
0.21959399
0.21315969
0.20134032
0.19595651
0.19201168
0.19396875
0.20053045
0.21006358
0.22114723
0.22967355
0.23616141
0.23999318
0.24264791
0.24494473
0.24770728
0.2505744
0.25275912
0.25412407
0.25532031
0.2566247
0.25888114
0.26102714
0.26193048
0.26267988
0.26321213
0.26423002
0.26589554
0.26720047
0.26786815
0.26956006
0.27164477
0.27209662
0.27256272
0.27264348
0.27209358
0.27161782
0.27191496
0.27255116
0.27347024
0.27521627
0.2750816
0.27670957
0.2783101
0.28205764
0.28834015
0.2880414
0.29384354
0.29177131
0.30020098
0.30525858
0.30039284
0.30106925
0.30109163
0.29955235
0.31290188
0.31890802
0.30872582
0.29946671
0.31628031
0.32671402
0.31141318
0.30716913
0.30263142
0.30971797
0.30588115
0.28792979
0.27386872
0.25659033
0.25071197
0.28267582
0.14791657
0.34829067
0.345751
0.33901056
0.34309239
0.34366048
0.34371431
0.34291593
0.34518148
0.34783055
0.34450103
0.34096442
0.34841434
0.34447505
0.3369678
0.34129411
0.34076753
0.33409675
0.33490336
0.33589008
0.33102489
0.33247593
0.33257976
0.32927068
0.33320714
0.3303253
0.32885811
0.33152902
0.32682224
0.33030488
0.3262417
0.32668816
0.32549141
0.32287927
0.32311433
0.3200095
0.31950892
0.31758105
0.31636714
0.31594566
0.3142268
0.31397908
0.3125111
0.30867162
0.30892603
0.30389028
0.30350654
0.30172775
0.29950187
0.29962395
0.29819542
0.29448951
0.29134935
0.28897975
0.28636171
0.28425169
0.28156242
0.27803163
0.27361262
0.26882164
0.26533336
0.26168951
0.25840514
0.25202687
0.24754642
0.23657118
0.24006963
0.20447115
0.24485755
0.073765729
0.39946251
0.38451992
0.40493048
0.41021641
0.42982492
0.43571093
0.41751513
0.41595161
0.42640928
0.43341255
0.44922018
0.43514892
0.41979387
0.43488941
0.43576312
0.45567504
0.44751062
0.42988678
0.44838648
0.44803557
0.4779072
0.46188689
0.42409832
0.44427514
0.44404343
0.4680449
0.45776352
0.43273834
0.45106808
0.45191634
0.48017005
0.46427348
0.43630997
0.461049
0.465823
0.49237194
0.46300687
0.43478024
0.4589032
0.47172045
0.48052512
0.45159833
0.45146279
0.46255987
0.49456299
0.47713115
0.43753643
0.46145733
0.47524914
0.49188644
0.45445619
0.44073325
0.4576817
0.48918132
0.47022494
0.43513535
0.45969371
0.48369826
0.48336566
0.43843086
0.4421317
0.46661433
0.48356108
0.43572842
0.41099414
0.4356183
0.46056275
0.43052066
0.40033081
0.41823786
0.45583882
0.42224144
0.36998231
0.39609768
0.42188598
0.39569918
0.3463804
0.36658044
0.37880176
0.36398799
0.33602847
0.34761359
0.34907708
)
;
    }
    Outlet
    {
        type            calculated;
        value           uniform 0;
    }
    Ground
    {
        type            calculated;
        value           nonuniform List<scalar> 
373
(
76.56184
78.635208
80.613148
82.550396
84.447371
86.297587
88.101227
89.85934
91.572405
93.240984
94.86584
96.447832
97.987881
99.486963
100.94609
102.36627
103.74855
105.09387
106.40339
107.67833
108.91974
110.12869
111.30596
112.45239
113.56902
114.65685
115.7168
116.74976
117.75661
118.73817
119.69525
120.62865
121.53911
122.42737
123.29411
124.13999
124.96567
125.77173
126.55874
127.32725
128.07774
128.81069
129.52648
130.22563
130.9081
131.5753
132.22501
132.86368
133.47957
134.09842
134.67376
135.28778
135.8745
136.4435
137.02357
137.60237
138.1436
138.68801
139.22145
139.74134
140.25073
140.75008
141.23951
141.71947
142.19036
142.65254
143.10632
143.55201
143.9899
144.42026
144.84334
145.25939
145.66863
146.07128
146.46756
146.85767
147.2418
147.62013
147.99287
148.36017
148.72221
149.07916
149.43118
149.77842
150.12105
150.4592
150.79303
151.12267
151.44826
151.76993
152.08781
152.40203
152.71271
153.01996
153.3239
153.62464
153.92228
154.21693
154.50869
154.79765
155.0839
155.36753
155.64862
155.92727
156.20354
156.47752
156.74928
157.01888
157.28641
157.55191
157.81547
158.07713
158.33696
158.59502
158.85136
159.10604
159.3591
159.61061
159.86061
160.10915
160.35627
160.60202
160.84644
161.08958
161.33149
161.57218
161.81172
162.05014
162.28747
162.52375
162.75901
162.9933
163.22665
163.45908
163.69063
163.92134
164.15123
164.38033
164.60867
164.83629
165.0632
165.28945
165.51504
165.74001
165.96439
166.18819
166.41145
166.63419
166.85642
167.07818
167.29949
167.52038
167.74087
167.96099
168.18078
168.40027
168.61951
168.83856
169.05748
169.27634
169.4953
169.71433
169.93416
170.1528
170.37931
170.5792
170.8917
61.826715
61.188652
60.515539
59.827952
59.125884
58.406855
57.671465
56.920627
56.154978
55.375318
54.58269
53.778356
52.96381
52.140833
51.311528
50.478364
49.644225
48.812468
47.986976
47.172225
46.37334
45.596161
44.847283
44.134131
43.464853
42.848673
42.295164
41.816261
41.423216
41.127469
40.939827
40.870983
40.930697
41.127373
41.467739
41.956551
42.596401
43.387688
44.328715
45.415903
46.644075
48.006788
49.496661
51.10568
52.825462
54.647456
56.563108
58.563952
60.64173
62.788251
64.996075
67.256078
69.566397
71.900186
74.320403
141.22879
138.92804
136.69008
134.51436
132.39656
130.33419
128.32586
126.36964
124.46436
122.60826
120.79878
119.03545
117.31719
115.64137
114.00677
112.41259
110.85857
109.34077
107.85888
106.41144
104.99728
103.61545
102.26425
100.94324
99.652302
98.390429
97.154297
95.944073
94.759568
93.599276
92.46256
91.350645
90.261065
89.190371
88.139181
87.10583
86.090628
85.092736
84.114941
83.149746
82.201311
81.268384
80.3507
79.447917
78.564197
77.690835
76.831962
75.98635
75.153859
74.335567
73.530884
72.742699
71.966553
71.203635
70.454581
69.719816
69.000184
68.296355
67.608406
66.936452
66.281378
65.643982
65.029274
64.439597
63.861116
63.346428
62.773859
62.453766
503.41514
485.17868
469.14567
455.76064
443.30582
431.60649
420.74802
410.64488
401.20016
392.34699
384.03466
376.20918
368.82271
361.83725
355.21189
348.91685
342.93078
337.21883
331.75784
326.53007
321.52715
316.72833
312.11078
307.66417
303.37623
299.23559
295.23842
291.36363
287.60452
283.95248
280.40038
276.95196
273.58613
270.30222
267.09481
263.95975
260.901
257.89848
254.95366
252.06199
249.2248
246.43698
243.68913
240.98152
238.30914
235.68125
233.08126
230.50943
227.96234
225.44329
222.95106
220.47483
218.01601
215.57087
213.14697
210.73506
208.3316
205.93309
203.5457
201.16566
198.7887
196.41247
194.03384
191.65963
189.28073
186.8988
184.50413
182.10464
179.69448
177.27373
174.83235
172.37862
169.90882
167.42124
164.90326
162.36329
159.80156
157.2085
154.57852
151.91523
149.21754
146.47691
143.68006
)
;
    }
}


// ************************************************************************* //
