# Wall shear stress
# Time          	patch           	min             	max             
1000            	Airfoil	(-1.44831132e-04 -5.37727920e-05 -1.98724074e-20)	(7.03361236e-06 5.61305865e-05 2.26343198e-20)
2000            	Airfoil	(-1.58915879e-04 -5.08279636e-05 -1.96928685e-20)	(7.54427342e-06 6.02076409e-05 2.24922387e-20)
3000            	Airfoil	(-1.64607877e-04 -4.97571166e-05 -1.96050374e-20)	(7.83291262e-06 6.18200556e-05 2.24265180e-20)
4000            	Airfoil	(-1.66827566e-04 -4.93914082e-05 -1.95696785e-20)	(7.94812130e-06 6.24434719e-05 2.23998277e-20)
5000            	Airfoil	(-1.67682607e-04 -4.92556606e-05 -1.95569931e-20)	(7.99539423e-06 6.26817473e-05 2.23896664e-20)
6000            	Airfoil	(-1.68012509e-04 -4.92124183e-05 -1.95518468e-20)	(8.01365982e-06 6.27777029e-05 2.23861181e-20)
