# Force coefficients
# dragDir       : (1.00000000e+00 0.00000000e+00 0.00000000e+00)
# sideDir       : (0.00000000e+00 0.00000000e+00 -1.00000000e+00)
# liftDir       : (0.00000000e+00 1.00000000e+00 0.00000000e+00)
# rollAxis      : (1.00000000e+00 0.00000000e+00 0.00000000e+00)
# pitchAxis     : (0.00000000e+00 0.00000000e+00 -1.00000000e+00)
# yawAxis       : (0.00000000e+00 1.00000000e+00 0.00000000e+00)
# magUInf       : 9.46572765e-02
# lRef          : 1.00000000e+00
# Aref          : 1.00000000e+00
# CofR          : (0.00000000e+00 0.00000000e+00 0.00000000e+00)
#
# Time          	Cd              	Cs              	Cl              	CmRoll          	CmPitch         	CmYaw           	Cd(f)           	Cd(r)           	Cs(f)           	Cs(r)           	Cl(f)           	Cl(r)           
1               	2.05922722e+01	-2.33877981e-19	-6.74920602e+01	3.37460301e+01	4.18226017e+01	1.02961361e+01	4.40421662e+01	-2.34498940e+01	1.02961361e+01	-1.02961361e+01	8.07657162e+00	-7.55686319e+01
2               	2.32521931e+00	-2.90044939e-19	-7.98295249e-01	3.99147625e-01	1.47595209e+00	1.16260966e+00	1.56175728e+00	7.63462030e-01	1.16260966e+00	-1.16260966e+00	1.07680446e+00	-1.87509971e+00
3               	-1.63320704e+00	-2.86048548e-19	7.50977180e+00	-3.75488590e+00	-3.81273719e+00	-8.16603520e-01	-4.57148942e+00	2.93828238e+00	-8.16603520e-01	8.16603520e-01	-5.78512880e-02	7.56762309e+00
4               	-7.90556003e-01	-2.68421164e-19	3.86033488e+00	-1.93016744e+00	-1.69402440e+00	-3.95278001e-01	-2.32544544e+00	1.53488944e+00	-3.95278001e-01	3.95278001e-01	2.36143046e-01	3.62419184e+00
5               	-4.99605672e-01	-2.65177475e-19	9.79313486e-01	-4.89656743e-01	-9.53034931e-01	-2.49802836e-01	-7.39459579e-01	2.39853907e-01	-2.49802836e-01	2.49802836e-01	-4.63378188e-01	1.44269167e+00
6               	-8.50259168e-02	-2.69239894e-19	-1.51835008e+00	7.59175040e-01	1.47732610e-01	-4.25129584e-02	7.16662082e-01	-8.01687999e-01	-4.25129584e-02	4.25129584e-02	-6.11442431e-01	-9.06907650e-01
7               	2.66176116e-02	-2.72421472e-19	-1.73649973e+00	8.68249864e-01	3.71141359e-01	1.33088058e-02	8.81558670e-01	-8.54941059e-01	1.33088058e-02	-1.33088058e-02	-4.97108506e-01	-1.23939122e+00
8               	4.08026045e-02	-2.73815778e-19	-9.75591843e-01	4.87795922e-01	2.63852586e-01	2.04013023e-02	5.08197224e-01	-4.67394619e-01	2.04013023e-02	-2.04013023e-02	-2.23943335e-01	-7.51648508e-01
9               	7.45030717e-02	-2.72971876e-19	-1.74921559e-01	8.74607794e-02	1.10599284e-01	3.72515358e-02	1.24712315e-01	-5.02092436e-02	3.72515358e-02	-3.72515358e-02	2.31385042e-02	-1.98060063e-01
10              	1.25534243e-01	-2.71243223e-19	7.51121883e-02	-3.75560941e-02	1.08249636e-01	6.27671214e-02	2.52110272e-02	1.00323216e-01	6.27671214e-02	-6.27671214e-02	1.45805730e-01	-7.06935418e-02
11              	1.33647722e-01	-2.70336716e-19	-1.34472160e-01	6.72360802e-02	1.80236881e-01	6.68238608e-02	1.34059941e-01	-4.12219412e-04	6.68238608e-02	-6.68238608e-02	1.13000801e-01	-2.47472961e-01
12              	1.15919319e-01	-2.70410661e-19	-5.12369516e-01	2.56184758e-01	2.75707296e-01	5.79596593e-02	3.14144417e-01	-1.98225099e-01	5.79596593e-02	-5.79596593e-02	1.95225375e-02	-5.31892054e-01
13              	8.27937608e-02	-2.70940398e-19	-7.25960728e-01	3.62980364e-01	2.95856098e-01	4.13968804e-02	4.04377244e-01	-3.21583483e-01	4.13968804e-02	-4.13968804e-02	-6.71242657e-02	-6.58836462e-01
14              	5.98773083e-02	-2.71573871e-19	-7.59497381e-01	3.79748691e-01	2.70561278e-01	2.99386541e-02	4.09687345e-01	-3.49810036e-01	2.99386541e-02	-2.99386541e-02	-1.09187413e-01	-6.50309968e-01
15              	5.12238931e-02	-2.71893782e-19	-7.03412498e-01	3.51706249e-01	2.38120285e-01	2.56119466e-02	3.77318196e-01	-3.26094302e-01	2.56119466e-02	-2.56119466e-02	-1.13585964e-01	-5.89826534e-01
16              	5.65124661e-02	-2.72115684e-19	-6.29812134e-01	3.14906067e-01	2.23703896e-01	2.82562330e-02	3.43162300e-01	-2.86649834e-01	2.82562330e-02	-2.82562330e-02	-9.12021711e-02	-5.38609963e-01
17              	6.56253089e-02	-2.72307609e-19	-5.77112199e-01	2.88556100e-01	2.23790836e-01	3.28126545e-02	3.21368754e-01	-2.55743445e-01	3.28126545e-02	-3.28126545e-02	-6.47652633e-02	-5.12346936e-01
18              	7.37826597e-02	-2.72420588e-19	-5.53657304e-01	2.76828652e-01	2.33597679e-01	3.68913298e-02	3.13719982e-01	-2.39937322e-01	3.68913298e-02	-3.68913298e-02	-4.32309729e-02	-5.10426332e-01
19              	7.95594484e-02	-2.72454262e-19	-5.59546362e-01	2.79773181e-01	2.47762098e-01	3.97797242e-02	3.19552905e-01	-2.39993457e-01	3.97797242e-02	-3.97797242e-02	-3.20110834e-02	-5.27535279e-01
20              	8.21894613e-02	-2.72451209e-19	-5.76925161e-01	2.88462581e-01	2.59301191e-01	4.10947307e-02	3.29557311e-01	-2.47367850e-01	4.10947307e-02	-4.10947307e-02	-2.91613895e-02	-5.47763772e-01
21              	8.34842248e-02	-2.72333355e-19	-5.97418057e-01	2.98709028e-01	2.67817265e-01	4.17421124e-02	3.40451141e-01	-2.56966916e-01	4.17421124e-02	-4.17421124e-02	-3.08917639e-02	-5.66526293e-01
22              	8.44320364e-02	-2.72276972e-19	-6.23940484e-01	3.11970242e-01	2.77357610e-01	4.22160182e-02	3.54186260e-01	-2.69754224e-01	4.22160182e-02	-4.22160182e-02	-3.46126321e-02	-5.89327852e-01
23              	8.40785489e-02	-2.72187441e-19	-6.51089519e-01	3.25544759e-01	2.84731944e-01	4.20392745e-02	3.67584034e-01	-2.83505485e-01	4.20392745e-02	-4.20392745e-02	-4.08128153e-02	-6.10276704e-01
24              	8.33840818e-02	-2.72115126e-19	-6.66821604e-01	3.33410802e-01	2.88808810e-01	4.16920409e-02	3.75102843e-01	-2.91718761e-01	4.16920409e-02	-4.16920409e-02	-4.46019923e-02	-6.22219612e-01
25              	8.26389570e-02	-2.72081944e-19	-6.78991150e-01	3.39495575e-01	2.91896535e-01	4.13194785e-02	3.80815054e-01	-2.98176097e-01	4.13194785e-02	-4.13194785e-02	-4.75990403e-02	-6.31392110e-01
26              	8.25887804e-02	-2.72026092e-19	-6.85816771e-01	3.42908385e-01	2.94745817e-01	4.12943902e-02	3.84202776e-01	-3.01613995e-01	4.12943902e-02	-4.12943902e-02	-4.81625682e-02	-6.37654203e-01
27              	8.34058596e-02	-2.72016773e-19	-6.86398861e-01	3.43199431e-01	2.97141518e-01	4.17029298e-02	3.84902360e-01	-3.01496501e-01	4.17029298e-02	-4.17029298e-02	-4.60579126e-02	-6.40340949e-01
28              	8.52482055e-02	-2.71967002e-19	-6.84316616e-01	3.42158308e-01	3.00116055e-01	4.26241028e-02	3.84782411e-01	-2.99534205e-01	4.26241028e-02	-4.26241028e-02	-4.20422525e-02	-6.42274363e-01
29              	8.73015315e-02	-2.71845871e-19	-6.81753312e-01	3.40876656e-01	3.02939625e-01	4.36507657e-02	3.84527422e-01	-2.97225890e-01	4.36507657e-02	-4.36507657e-02	-3.79370312e-02	-6.43816280e-01
30              	8.92423623e-02	-2.71702874e-19	-6.82113129e-01	3.41056565e-01	3.06324983e-01	4.46211811e-02	3.85677746e-01	-2.96435383e-01	4.46211811e-02	-4.46211811e-02	-3.47315812e-02	-6.47381548e-01
31              	9.07349197e-02	-2.71576035e-19	-6.87752617e-01	3.43876309e-01	3.10618782e-01	4.53674598e-02	3.89243768e-01	-2.98508849e-01	4.53674598e-02	-4.53674598e-02	-3.32575263e-02	-6.54495091e-01
32              	9.15662220e-02	-2.71433448e-19	-6.98247690e-01	3.49123845e-01	3.15347185e-01	4.57831110e-02	3.94906956e-01	-3.03340734e-01	4.57831110e-02	-4.57831110e-02	-3.37766597e-02	-6.64471030e-01
33              	9.18442138e-02	-2.71302984e-19	-7.10360290e-01	3.55180145e-01	3.19639579e-01	4.59221069e-02	4.01102252e-01	-3.09258038e-01	4.59221069e-02	-4.59221069e-02	-3.55405661e-02	-6.74819724e-01
34              	9.20521647e-02	-2.71218027e-19	-7.21909815e-01	3.60954908e-01	3.23502707e-01	4.60260823e-02	4.06980990e-01	-3.14928825e-01	4.60260823e-02	-4.60260823e-02	-3.74522012e-02	-6.84457614e-01
35              	9.24026058e-02	-2.71217133e-19	-7.30637756e-01	3.65318878e-01	3.26678776e-01	4.62013029e-02	4.11520181e-01	-3.19117575e-01	4.62013029e-02	-4.62013029e-02	-3.86401023e-02	-6.91997654e-01
36              	9.28989339e-02	-2.71265146e-19	-7.35227540e-01	3.67613770e-01	3.28925539e-01	4.64494669e-02	4.14063237e-01	-3.21164303e-01	4.64494669e-02	-4.64494669e-02	-3.86882312e-02	-6.96539309e-01
37              	9.35858906e-02	-2.71315957e-19	-7.37182266e-01	3.68591133e-01	3.30821675e-01	4.67929453e-02	4.15384078e-01	-3.21798188e-01	4.67929453e-02	-4.67929453e-02	-3.77694578e-02	-6.99412809e-01
38              	9.43933810e-02	-2.71368067e-19	-7.37889574e-01	3.68944787e-01	3.32696716e-01	4.71966905e-02	4.16141478e-01	-3.21748097e-01	4.71966905e-02	-4.71966905e-02	-3.62480714e-02	-7.01641503e-01
39              	9.51566479e-02	-2.71397127e-19	-7.38405827e-01	3.69202914e-01	3.34558385e-01	4.75783240e-02	4.16781238e-01	-3.21624590e-01	4.75783240e-02	-4.75783240e-02	-3.46445286e-02	-7.03761299e-01
40              	9.57104943e-02	-2.71414982e-19	-7.39202245e-01	3.69601123e-01	3.36200198e-01	4.78552472e-02	4.17456370e-01	-3.21745875e-01	4.78552472e-02	-4.78552472e-02	-3.34009248e-02	-7.05801320e-01
41              	9.60125939e-02	-2.71426876e-19	-7.40942509e-01	3.70471254e-01	3.37682163e-01	4.80062969e-02	4.18477551e-01	-3.22464957e-01	4.80062969e-02	-4.80062969e-02	-3.27890911e-02	-7.08153418e-01
42              	9.61329752e-02	-2.71450126e-19	-7.43825350e-01	3.71912675e-01	3.39139463e-01	4.80664876e-02	4.19979163e-01	-3.23846187e-01	4.80664876e-02	-4.80664876e-02	-3.27732118e-02	-7.11052138e-01
43              	9.61882712e-02	-2.71509032e-19	-7.47575410e-01	3.73787705e-01	3.40642923e-01	4.80941356e-02	4.21881841e-01	-3.25693570e-01	4.80941356e-02	-4.80941356e-02	-3.31447827e-02	-7.14430628e-01
44              	9.62741285e-02	-2.71613708e-19	-7.51229692e-01	3.75614846e-01	3.42067103e-01	4.81370642e-02	4.23751910e-01	-3.27477782e-01	4.81370642e-02	-4.81370642e-02	-3.35477426e-02	-7.17681949e-01
45              	9.64295294e-02	-2.71748190e-19	-7.54543600e-01	3.77271800e-01	3.43466174e-01	4.82147647e-02	4.25486565e-01	-3.29057035e-01	4.82147647e-02	-4.82147647e-02	-3.38056258e-02	-7.20737974e-01
46              	9.65986916e-02	-2.71898926e-19	-7.57143767e-01	3.78571884e-01	3.44690986e-01	4.82993458e-02	4.26871229e-01	-3.30272538e-01	4.82993458e-02	-4.82993458e-02	-3.38808978e-02	-7.23262869e-01
47              	9.67469484e-02	-2.72050843e-19	-7.58707781e-01	3.79353890e-01	3.45648525e-01	4.83734742e-02	4.27727365e-01	-3.30980416e-01	4.83734742e-02	-4.83734742e-02	-3.37053649e-02	-7.25002416e-01
48              	9.68276789e-02	-2.72192873e-19	-7.58933241e-01	3.79466620e-01	3.46192780e-01	4.84138395e-02	4.27880460e-01	-3.31052781e-01	4.84138395e-02	-4.84138395e-02	-3.32738400e-02	-7.25659400e-01
49              	9.68403397e-02	-2.72319201e-19	-7.58323175e-01	3.79161587e-01	3.46442139e-01	4.84201699e-02	4.27581757e-01	-3.30741418e-01	4.84201699e-02	-4.84201699e-02	-3.27194482e-02	-7.25603727e-01
50              	9.67705499e-02	-2.72439321e-19	-7.57583848e-01	3.78791924e-01	3.46543397e-01	4.83852749e-02	4.27177199e-01	-3.30406649e-01	4.83852749e-02	-4.83852749e-02	-3.22485274e-02	-7.25335321e-01
51              	9.66537504e-02	-2.72564352e-19	-7.57227654e-01	3.78613827e-01	3.46634679e-01	4.83268752e-02	4.26940702e-01	-3.30286952e-01	4.83268752e-02	-4.83268752e-02	-3.19791475e-02	-7.25248506e-01
52              	9.65464351e-02	-2.72696065e-19	-7.57411438e-01	3.78705719e-01	3.46839483e-01	4.82732175e-02	4.26978937e-01	-3.30432502e-01	4.82732175e-02	-4.82732175e-02	-3.18662362e-02	-7.25545202e-01
53              	9.64838353e-02	-2.72847868e-19	-7.58011041e-01	3.79005521e-01	3.47176433e-01	4.82419176e-02	4.27247438e-01	-3.30763603e-01	4.82419176e-02	-4.82419176e-02	-3.18290878e-02	-7.26181953e-01
54              	9.64695940e-02	-2.73013658e-19	-7.58849816e-01	3.79424908e-01	3.47603974e-01	4.82347970e-02	4.27659705e-01	-3.31190111e-01	4.82347970e-02	-4.82347970e-02	-3.18209335e-02	-7.27028882e-01
55              	9.64520725e-02	-2.73189357e-19	-7.59637336e-01	3.79818668e-01	3.47993292e-01	4.82260362e-02	4.28044704e-01	-3.31592632e-01	4.82260362e-02	-4.82260362e-02	-3.18253757e-02	-7.27811960e-01
56              	9.64055158e-02	-2.73362921e-19	-7.60300761e-01	3.80150380e-01	3.48305439e-01	4.82027579e-02	4.28353138e-01	-3.31947622e-01	4.82027579e-02	-4.82027579e-02	-3.18449409e-02	-7.28455820e-01
57              	9.63128647e-02	-2.73534350e-19	-7.60616546e-01	3.80308273e-01	3.48479399e-01	4.81564324e-02	4.28464705e-01	-3.32151841e-01	4.81564324e-02	-4.81564324e-02	-3.18288738e-02	-7.28787672e-01
58              	9.61869471e-02	-2.73699558e-19	-7.60632090e-01	3.80316045e-01	3.48550744e-01	4.80934736e-02	4.28409519e-01	-3.32222571e-01	4.80934736e-02	-4.80934736e-02	-3.17653009e-02	-7.28866789e-01
59              	9.60218549e-02	-2.73858766e-19	-7.60208403e-01	3.80104201e-01	3.48465783e-01	4.80109275e-02	4.28115129e-01	-3.32093274e-01	4.80109275e-02	-4.80109275e-02	-3.16384181e-02	-7.28569985e-01
60              	9.58396585e-02	-2.74022498e-19	-7.59544519e-01	3.79772259e-01	3.48308843e-01	4.79198292e-02	4.27692089e-01	-3.31852430e-01	4.79198292e-02	-4.79198292e-02	-3.14634158e-02	-7.28081103e-01
61              	9.56656426e-02	-2.74196081e-19	-7.58887562e-01	3.79443781e-01	3.48172036e-01	4.78328213e-02	4.27276602e-01	-3.31610960e-01	4.78328213e-02	-4.78328213e-02	-3.12717449e-02	-7.27615817e-01
62              	9.55260001e-02	-2.74379813e-19	-7.58333742e-01	3.79166871e-01	3.48105351e-01	4.77630001e-02	4.26929871e-01	-3.31403871e-01	4.77630001e-02	-4.77630001e-02	-3.10615198e-02	-7.27272222e-01
63              	9.54131325e-02	-2.74566070e-19	-7.57870839e-01	3.78935420e-01	3.48089567e-01	4.77065663e-02	4.26641986e-01	-3.31228853e-01	4.77065663e-02	-4.77065663e-02	-3.08458524e-02	-7.27024987e-01
64              	9.53109994e-02	-2.74748090e-19	-7.57445675e-01	3.78722838e-01	3.48071118e-01	4.76554997e-02	4.26378337e-01	-3.31067338e-01	4.76554997e-02	-4.76554997e-02	-3.06517201e-02	-7.26793955e-01
65              	9.52192810e-02	-2.74926779e-19	-7.57144527e-01	3.78572263e-01	3.48072625e-01	4.76096405e-02	4.26181904e-01	-3.30962623e-01	4.76096405e-02	-4.76096405e-02	-3.04996383e-02	-7.26644888e-01
66              	9.51181259e-02	-2.75097612e-19	-7.57069314e-01	3.78534657e-01	3.48118331e-01	4.75590630e-02	4.26093720e-01	-3.30975594e-01	4.75590630e-02	-4.75590630e-02	-3.04163263e-02	-7.26652988e-01
67              	9.49955080e-02	-2.75258105e-19	-7.57157881e-01	3.78578940e-01	3.48194008e-01	4.74977540e-02	4.26076694e-01	-3.31081186e-01	4.74977540e-02	-4.74977540e-02	-3.03849325e-02	-7.26772948e-01
68              	9.48456683e-02	-2.75416106e-19	-7.57126797e-01	3.78563398e-01	3.48216689e-01	4.74228341e-02	4.25986232e-01	-3.31140564e-01	4.74228341e-02	-4.74228341e-02	-3.03467093e-02	-7.26780087e-01
69              	9.46941501e-02	-2.75573539e-19	-7.56930738e-01	3.78465369e-01	3.48206463e-01	4.73470750e-02	4.25812444e-01	-3.31118294e-01	4.73470750e-02	-4.73470750e-02	-3.02589060e-02	-7.26671832e-01
70              	9.45453494e-02	-2.75744632e-19	-7.56532297e-01	3.78266148e-01	3.48151792e-01	4.72726747e-02	4.25538823e-01	-3.30993474e-01	4.72726747e-02	-4.72726747e-02	-3.01143568e-02	-7.26417940e-01
71              	9.43924669e-02	-2.75924836e-19	-7.55920054e-01	3.77960027e-01	3.48043520e-01	4.71962334e-02	4.25156260e-01	-3.30763793e-01	4.71962334e-02	-4.71962334e-02	-2.99165065e-02	-7.26003547e-01
72              	9.42390909e-02	-2.76105732e-19	-7.55132932e-01	3.77566466e-01	3.47863998e-01	4.71195455e-02	4.24686011e-01	-3.30446920e-01	4.71195455e-02	-4.71195455e-02	-2.97024684e-02	-7.25430463e-01
73              	9.40993462e-02	-2.76276255e-19	-7.54441668e-01	3.77220834e-01	3.47727485e-01	4.70496731e-02	4.24270507e-01	-3.30171161e-01	4.70496731e-02	-4.70496731e-02	-2.94933491e-02	-7.24948319e-01
74              	9.39892967e-02	-2.76438601e-19	-7.54026513e-01	3.77013256e-01	3.47709457e-01	4.69946483e-02	4.24007905e-01	-3.30018608e-01	4.69946483e-02	-4.69946483e-02	-2.93037997e-02	-7.24722713e-01
75              	9.39122743e-02	-2.76590658e-19	-7.53871764e-01	3.76935882e-01	3.47811552e-01	4.69561371e-02	4.23892019e-01	-3.29979745e-01	4.69561371e-02	-4.69561371e-02	-2.91243298e-02	-7.24747434e-01
76              	9.38481919e-02	-2.76733192e-19	-7.53900472e-01	3.76950236e-01	3.47977250e-01	4.69240959e-02	4.23874332e-01	-3.30026140e-01	4.69240959e-02	-4.69240959e-02	-2.89729863e-02	-7.24927486e-01
77              	9.37822726e-02	-2.76883696e-19	-7.53953097e-01	3.76976549e-01	3.48143063e-01	4.68911363e-02	4.23867685e-01	-3.30085412e-01	4.68911363e-02	-4.68911363e-02	-2.88334857e-02	-7.25119612e-01
78              	9.36878922e-02	-2.77040293e-19	-7.53828186e-01	3.76914093e-01	3.48210497e-01	4.68439461e-02	4.23758039e-01	-3.30070147e-01	4.68439461e-02	-4.68439461e-02	-2.87035955e-02	-7.25124590e-01
79              	9.35592521e-02	-2.77202409e-19	-7.53563661e-01	3.76781831e-01	3.48183597e-01	4.67796261e-02	4.23561457e-01	-3.30002205e-01	4.67796261e-02	-4.67796261e-02	-2.85982333e-02	-7.24965428e-01
80              	9.34180673e-02	-2.77382881e-19	-7.53273615e-01	3.76636807e-01	3.48141261e-01	4.67090336e-02	4.23345841e-01	-3.29927774e-01	4.67090336e-02	-4.67090336e-02	-2.84955462e-02	-7.24778068e-01
81              	9.32920222e-02	-2.77561179e-19	-7.53115966e-01	3.76557983e-01	3.48170185e-01	4.66460111e-02	4.23203994e-01	-3.29911972e-01	4.66460111e-02	-4.66460111e-02	-2.83877979e-02	-7.24728168e-01
82              	9.32068534e-02	-2.77731792e-19	-7.53130439e-01	3.76565219e-01	3.48307657e-01	4.66034267e-02	4.23168646e-01	-3.29961793e-01	4.66034267e-02	-4.66034267e-02	-2.82575626e-02	-7.24872876e-01
83              	9.31614106e-02	-2.77895503e-19	-7.53196951e-01	3.76598475e-01	3.48504189e-01	4.65807053e-02	4.23179181e-01	-3.30017770e-01	4.65807053e-02	-4.65807053e-02	-2.80942867e-02	-7.25102664e-01
84              	9.31329535e-02	-2.78046412e-19	-7.53246402e-01	3.76623201e-01	3.48718731e-01	4.65664768e-02	4.23189678e-01	-3.30056724e-01	4.65664768e-02	-4.65664768e-02	-2.79044699e-02	-7.25341932e-01
85              	9.30845949e-02	-2.78195493e-19	-7.53076900e-01	3.76538450e-01	3.48828945e-01	4.65422974e-02	4.23080748e-01	-3.29996153e-01	4.65422974e-02	-4.65422974e-02	-2.77095055e-02	-7.25367395e-01
86              	9.30146935e-02	-2.78346523e-19	-7.52899749e-01	3.76449874e-01	3.48897335e-01	4.65073467e-02	4.22957221e-01	-3.29942528e-01	4.65073467e-02	-4.65073467e-02	-2.75525391e-02	-7.25347210e-01
87              	9.29442861e-02	-2.78498123e-19	-7.52990649e-01	3.76495324e-01	3.49039400e-01	4.64721431e-02	4.22967467e-01	-3.30023181e-01	4.64721431e-02	-4.64721431e-02	-2.74559247e-02	-7.25534724e-01
88              	9.28873291e-02	-2.78653804e-19	-7.53349487e-01	3.76674743e-01	3.49273621e-01	4.64436645e-02	4.23118408e-01	-3.30231079e-01	4.64436645e-02	-4.64436645e-02	-2.74011227e-02	-7.25948364e-01
89              	9.28225454e-02	-2.78820728e-19	-7.53729488e-01	3.76864744e-01	3.49514401e-01	4.64112727e-02	4.23276017e-01	-3.30453471e-01	4.64112727e-02	-4.64112727e-02	-2.73503435e-02	-7.26379145e-01
90              	9.27605625e-02	-2.78977242e-19	-7.54032616e-01	3.77016308e-01	3.49723040e-01	4.63802813e-02	4.23396589e-01	-3.30636027e-01	4.63802813e-02	-4.63802813e-02	-2.72932680e-02	-7.26739348e-01
91              	9.26812846e-02	-2.79135924e-19	-7.54216325e-01	3.77108163e-01	3.49863993e-01	4.63406423e-02	4.23448805e-01	-3.30767520e-01	4.63406423e-02	-4.63406423e-02	-2.72441701e-02	-7.26972155e-01
92              	9.25999970e-02	-2.79296575e-19	-7.54314772e-01	3.77157386e-01	3.49970441e-01	4.62999985e-02	4.23457384e-01	-3.30857387e-01	4.62999985e-02	-4.62999985e-02	-2.71869452e-02	-7.27127827e-01
93              	9.25200110e-02	-2.79445571e-19	-7.54394911e-01	3.77197456e-01	3.50072667e-01	4.62600055e-02	4.23457461e-01	-3.30937450e-01	4.62600055e-02	-4.62600055e-02	-2.71247891e-02	-7.27270122e-01
94              	9.24415240e-02	-2.79578568e-19	-7.54476500e-01	3.77238250e-01	3.50172241e-01	4.62207620e-02	4.23459012e-01	-3.31017488e-01	4.62207620e-02	-4.62207620e-02	-2.70660095e-02	-7.27410491e-01
95              	9.23674081e-02	-2.79701963e-19	-7.54581962e-01	3.77290981e-01	3.50283626e-01	4.61837041e-02	4.23474685e-01	-3.31107277e-01	4.61837041e-02	-4.61837041e-02	-2.70073548e-02	-7.27574607e-01
96              	9.22967969e-02	-2.79822980e-19	-7.54644964e-01	3.77322482e-01	3.50369798e-01	4.61483985e-02	4.23470880e-01	-3.31174083e-01	4.61483985e-02	-4.61483985e-02	-2.69526835e-02	-7.27692280e-01
97              	9.22119826e-02	-2.79933322e-19	-7.54636841e-01	3.77318420e-01	3.50400885e-01	4.61059913e-02	4.23424412e-01	-3.31212429e-01	4.61059913e-02	-4.61059913e-02	-2.69175359e-02	-7.27719305e-01
98              	9.21128604e-02	-2.80056590e-19	-7.54675141e-01	3.77337571e-01	3.50411973e-01	4.60564302e-02	4.23394001e-01	-3.31281141e-01	4.60564302e-02	-4.60564302e-02	-2.69255977e-02	-7.27749544e-01
99              	9.20044905e-02	-2.80176220e-19	-7.54811112e-01	3.77405556e-01	3.50436539e-01	4.60022453e-02	4.23407802e-01	-3.31403311e-01	4.60022453e-02	-4.60022453e-02	-2.69690169e-02	-7.27842096e-01
100             	9.18963342e-02	-2.80293850e-19	-7.55038071e-01	3.77519036e-01	3.50477548e-01	4.59481671e-02	4.23467203e-01	-3.31570869e-01	4.59481671e-02	-4.59481671e-02	-2.70414879e-02	-7.27996583e-01
101             	9.17957151e-02	-2.80405525e-19	-7.55264240e-01	3.77632120e-01	3.50533148e-01	4.58978575e-02	4.23529978e-01	-3.31734262e-01	4.58978575e-02	-4.58978575e-02	-2.70989725e-02	-7.28165268e-01
102             	9.17012127e-02	-2.80517751e-19	-7.55515039e-01	3.77757519e-01	3.50603776e-01	4.58506064e-02	4.23608126e-01	-3.31906913e-01	4.58506064e-02	-4.58506064e-02	-2.71537435e-02	-7.28361295e-01
103             	9.15952690e-02	-2.80608222e-19	-7.55588830e-01	3.77794415e-01	3.50597567e-01	4.57976345e-02	4.23592049e-01	-3.31996780e-01	4.57976345e-02	-4.57976345e-02	-2.71968481e-02	-7.28391982e-01
104             	9.14671818e-02	-2.80698854e-19	-7.55527751e-01	3.77763876e-01	3.50521845e-01	4.57335909e-02	4.23497466e-01	-3.32030285e-01	4.57335909e-02	-4.57335909e-02	-2.72420301e-02	-7.28285721e-01
105             	9.13215009e-02	-2.80783835e-19	-7.55360768e-01	3.77680384e-01	3.50380330e-01	4.56607505e-02	4.23341135e-01	-3.32019634e-01	4.56607505e-02	-4.56607505e-02	-2.73000546e-02	-7.28060714e-01
106             	9.11697503e-02	-2.80868705e-19	-7.55173673e-01	3.77586837e-01	3.50217663e-01	4.55848752e-02	4.23171712e-01	-3.32001961e-01	4.55848752e-02	-4.55848752e-02	-2.73691732e-02	-7.27804500e-01
107             	9.10272456e-02	-2.80971883e-19	-7.55174638e-01	3.77587319e-01	3.50115425e-01	4.55136228e-02	4.23100942e-01	-3.32073696e-01	4.55136228e-02	-4.55136228e-02	-2.74718941e-02	-7.27702744e-01
108             	9.09026357e-02	-2.81081624e-19	-7.55396300e-01	3.77698150e-01	3.50108456e-01	4.54513179e-02	4.23149468e-01	-3.32246832e-01	4.54513179e-02	-4.54513179e-02	-2.75896940e-02	-7.27806606e-01
109             	9.07797420e-02	-2.81197284e-19	-7.55709549e-01	3.77854774e-01	3.50117138e-01	4.53898710e-02	4.23244645e-01	-3.32464903e-01	4.53898710e-02	-4.53898710e-02	-2.77376358e-02	-7.27971913e-01
110             	9.06488041e-02	-2.81298989e-19	-7.55936403e-01	3.77968201e-01	3.50084091e-01	4.53244020e-02	4.23292603e-01	-3.32643799e-01	4.53244020e-02	-4.53244020e-02	-2.78841106e-02	-7.28052292e-01
111             	9.05091381e-02	-2.81410536e-19	-7.56030706e-01	3.78015353e-01	3.49988780e-01	4.52545691e-02	4.23269922e-01	-3.32760784e-01	4.52545691e-02	-4.52545691e-02	-2.80265726e-02	-7.28004133e-01
112             	9.03595046e-02	-2.81515614e-19	-7.56103992e-01	3.78051996e-01	3.49867517e-01	4.51797523e-02	4.23231748e-01	-3.32872244e-01	4.51797523e-02	-4.51797523e-02	-2.81844792e-02	-7.27919513e-01
113             	9.02055618e-02	-2.81620773e-19	-7.56084488e-01	3.78042244e-01	3.49713456e-01	4.51027809e-02	4.23145025e-01	-3.32939463e-01	4.51027809e-02	-4.51027809e-02	-2.83287876e-02	-7.27755700e-01
114             	9.00531401e-02	-2.81730680e-19	-7.56059411e-01	3.78029705e-01	3.49559976e-01	4.50265700e-02	4.23056275e-01	-3.33003135e-01	4.50265700e-02	-4.50265700e-02	-2.84697296e-02	-7.27589681e-01
115             	8.99034471e-02	-2.81843991e-19	-7.56090632e-01	3.78045316e-01	3.49418135e-01	4.49517235e-02	4.22997039e-01	-3.33093592e-01	4.49517235e-02	-4.49517235e-02	-2.86271812e-02	-7.27463451e-01
116             	8.97571521e-02	-2.81960423e-19	-7.56195240e-01	3.78097620e-01	3.49302659e-01	4.48785760e-02	4.22976196e-01	-3.33219044e-01	4.48785760e-02	-4.48785760e-02	-2.87949607e-02	-7.27400279e-01
117             	8.96150044e-02	-2.82087207e-19	-7.56400384e-01	3.78200192e-01	3.49214594e-01	4.48075022e-02	4.23007694e-01	-3.33392690e-01	4.48075022e-02	-4.48075022e-02	-2.89855985e-02	-7.27414786e-01
118             	8.94667048e-02	-2.82207945e-19	-7.56609656e-01	3.78304828e-01	3.49110810e-01	4.47333524e-02	4.23038180e-01	-3.33571475e-01	4.47333524e-02	-4.47333524e-02	-2.91940176e-02	-7.27415638e-01
119             	8.93267665e-02	-2.82327557e-19	-7.56873616e-01	3.78436808e-01	3.49025216e-01	4.46633833e-02	4.23100191e-01	-3.33773425e-01	4.46633833e-02	-4.46633833e-02	-2.94115919e-02	-7.27462024e-01
120             	8.91865174e-02	-2.82441358e-19	-7.57186646e-01	3.78593323e-01	3.48948725e-01	4.45932587e-02	4.23186582e-01	-3.34000065e-01	4.45932587e-02	-4.45932587e-02	-2.96445980e-02	-7.27542048e-01
121             	8.90434020e-02	-2.82557642e-19	-7.57517084e-01	3.78758542e-01	3.48870706e-01	4.45217010e-02	4.23280243e-01	-3.34236841e-01	4.45217010e-02	-4.45217010e-02	-2.98878355e-02	-7.27629248e-01
122             	8.88954882e-02	-2.82665184e-19	-7.57752493e-01	3.78876247e-01	3.48760161e-01	4.44477441e-02	4.23323991e-01	-3.34428503e-01	4.44477441e-02	-4.44477441e-02	-3.01160861e-02	-7.27636407e-01
123             	8.87423346e-02	-2.82779252e-19	-7.57930543e-01	3.78965271e-01	3.48618930e-01	4.43711673e-02	4.23336439e-01	-3.34594104e-01	4.43711673e-02	-4.43711673e-02	-3.03463410e-02	-7.27584202e-01
124             	8.85800011e-02	-2.82889006e-19	-7.58052204e-01	3.79026102e-01	3.48445071e-01	4.42900006e-02	4.23316103e-01	-3.34736102e-01	4.42900006e-02	-4.42900006e-02	-3.05810315e-02	-7.27471173e-01
125             	8.84151775e-02	-2.83003840e-19	-7.58184617e-01	3.79092308e-01	3.48264747e-01	4.42075887e-02	4.23299897e-01	-3.34884720e-01	4.42075887e-02	-4.42075887e-02	-3.08275618e-02	-7.27357055e-01
126             	8.82641228e-02	-2.83125269e-19	-7.58459564e-01	3.79229782e-01	3.48144271e-01	4.41320614e-02	4.23361844e-01	-3.35097721e-01	4.41320614e-02	-4.41320614e-02	-3.10855110e-02	-7.27374053e-01
127             	8.81189486e-02	-2.83246518e-19	-7.58822133e-01	3.79411066e-01	3.48062959e-01	4.40594743e-02	4.23470541e-01	-3.35351592e-01	4.40594743e-02	-4.40594743e-02	-3.13481069e-02	-7.27474026e-01
128             	8.79772192e-02	-2.83358393e-19	-7.59238133e-01	3.79619066e-01	3.47997894e-01	4.39886096e-02	4.23607676e-01	-3.35630457e-01	4.39886096e-02	-4.39886096e-02	-3.16211721e-02	-7.27616960e-01
129             	8.78240312e-02	-2.83462753e-19	-7.59600573e-01	3.79800287e-01	3.47893461e-01	4.39120156e-02	4.23712302e-01	-3.35888271e-01	4.39120156e-02	-4.39120156e-02	-3.19068256e-02	-7.27693747e-01
130             	8.76716478e-02	-2.83564201e-19	-7.59876872e-01	3.79938436e-01	3.47754107e-01	4.38358239e-02	4.23774260e-01	-3.36102612e-01	4.38358239e-02	-4.38358239e-02	-3.21843293e-02	-7.27692543e-01
131             	8.75163983e-02	-2.83663724e-19	-7.60231023e-01	3.80115511e-01	3.47640297e-01	4.37581991e-02	4.23873710e-01	-3.36357312e-01	4.37581991e-02	-4.37581991e-02	-3.24752139e-02	-7.27755809e-01
132             	8.73695189e-02	-2.83770077e-19	-7.60678731e-01	3.80339366e-01	3.47568152e-01	4.36847594e-02	4.24024125e-01	-3.36654606e-01	4.36847594e-02	-4.36847594e-02	-3.27712140e-02	-7.27907517e-01
133             	8.72224258e-02	-2.83892286e-19	-7.61095840e-01	3.80547920e-01	3.47488041e-01	4.36112129e-02	4.24159133e-01	-3.36936707e-01	4.36112129e-02	-4.36112129e-02	-3.30598794e-02	-7.28035960e-01
134             	8.70752600e-02	-2.84011963e-19	-7.61460441e-01	3.80730220e-01	3.47385236e-01	4.35376300e-02	4.24267850e-01	-3.37192590e-01	4.35376300e-02	-4.35376300e-02	-3.33449839e-02	-7.28115457e-01
135             	8.69297043e-02	-2.84124820e-19	-7.61767661e-01	3.80883830e-01	3.47269991e-01	4.34648522e-02	4.24348682e-01	-3.37418978e-01	4.34648522e-02	-4.34648522e-02	-3.36138397e-02	-7.28153821e-01
136             	8.67815917e-02	-2.84223255e-19	-7.62119598e-01	3.81059799e-01	3.47166690e-01	4.33907959e-02	4.24450595e-01	-3.37669003e-01	4.33907959e-02	-4.33907959e-02	-3.38931093e-02	-7.28226489e-01
137             	8.66455926e-02	-2.84306232e-19	-7.62601257e-01	3.81300629e-01	3.47125012e-01	4.33227963e-02	4.24623425e-01	-3.37977832e-01	4.33227963e-02	-4.33227963e-02	-3.41756162e-02	-7.28425641e-01
138             	8.65292359e-02	-2.84380228e-19	-7.63244976e-01	3.81622488e-01	3.47159080e-01	4.32646180e-02	4.24887106e-01	-3.38357870e-01	4.32646180e-02	-4.32646180e-02	-3.44634085e-02	-7.28781568e-01
139             	8.64304904e-02	-2.84449664e-19	-7.63917912e-01	3.81958956e-01	3.47213764e-01	4.32152452e-02	4.25174201e-01	-3.38743711e-01	4.32152452e-02	-4.32152452e-02	-3.47451923e-02	-7.29172720e-01
140             	8.63364944e-02	-2.84518601e-19	-7.64626865e-01	3.82313433e-01	3.47292812e-01	4.31682472e-02	4.25481680e-01	-3.39145185e-01	4.31682472e-02	-4.31682472e-02	-3.50206202e-02	-7.29606245e-01
141             	8.62430021e-02	-2.84591994e-19	-7.65275822e-01	3.82637911e-01	3.47352669e-01	4.31215010e-02	4.25759412e-01	-3.39516410e-01	4.31215010e-02	-4.31215010e-02	-3.52852418e-02	-7.29990580e-01
142             	8.61544685e-02	-2.84666107e-19	-7.65872062e-01	3.82936031e-01	3.47393044e-01	4.30772343e-02	4.26013265e-01	-3.39858797e-01	4.30772343e-02	-4.30772343e-02	-3.55429867e-02	-7.30329075e-01
143             	8.60740236e-02	-2.84728261e-19	-7.66598524e-01	3.83299262e-01	3.47478272e-01	4.30370118e-02	4.26336274e-01	-3.40262250e-01	4.30370118e-02	-4.30370118e-02	-3.58209904e-02	-7.30777534e-01