/*--------------------------------*- C++ -*----------------------------------*\
| =========                 |                                                 |
| \\      /  F ield         | OpenFOAM: The Open Source CFD Toolbox           |
|  \\    /   O peration     | Version:  v2006                                 |
|   \\  /    A nd           | Website:  www.openfoam.com                      |
|    \\/     M anipulation  |                                                 |
\*---------------------------------------------------------------------------*/
FoamFile
{
    version     2.0;
    format      ascii;
    class       volScalarField;
    location    "6000";
    object      alphat;
}
// * * * * * * * * * * * * * * * * * * * * * * * * * * * * * * * * * * * * * //

dimensions      [1 -1 -1 0 0 0 0];


internalField   nonuniform List<scalar> 
102907
(
2.8398687e-11
2.6408234e-10
4.1040302e-09
2.0392412e-08
4.7763501e-08
7.1555768e-08
8.5020808e-08
9.0803852e-08
9.2750685e-08
9.3187203e-08
9.3171884e-08
9.3087658e-08
9.3030995e-08
9.3005302e-08
9.2996896e-08
9.2996323e-08
9.2997701e-08
9.2998549e-08
9.2998662e-08
9.29985e-08
9.2998552e-08
9.2998802e-08
9.2999083e-08
9.2999164e-08
9.2999018e-08
9.2998775e-08
9.2998569e-08
9.2998441e-08
9.2998395e-08
9.2998374e-08
9.2998344e-08
9.2998291e-08
9.2998231e-08
9.2998158e-08
9.2998074e-08
9.2997994e-08
9.2997904e-08
9.2997822e-08
9.2997721e-08
9.2997586e-08
9.299745e-08
9.2997297e-08
9.2997139e-08
9.2996967e-08
9.2996792e-08
9.2996603e-08
9.2996405e-08
9.2996197e-08
9.2995992e-08
9.2995785e-08
9.2995577e-08
9.299537e-08
9.2995164e-08
9.2994959e-08
9.2994743e-08
9.2994505e-08
9.299423e-08
9.2993911e-08
9.2993542e-08
9.2993131e-08
9.2992687e-08
9.2992229e-08
9.2991762e-08
9.2991303e-08
9.2990852e-08
9.2990416e-08
9.2989978e-08
9.2989544e-08
9.2989098e-08
9.2988651e-08
9.2988188e-08
9.2987722e-08
9.2987237e-08
9.2986751e-08
9.2986249e-08
9.2985757e-08
9.2985249e-08
9.2984739e-08
9.2984187e-08
9.2983593e-08
9.2982965e-08
2.9506417e-11
3.3527539e-10
5.1940624e-09
2.4285193e-08
5.3320811e-08
7.6075794e-08
8.7781048e-08
9.2321285e-08
9.3660767e-08
9.3863448e-08
9.3787181e-08
9.3701879e-08
9.3655518e-08
9.3637171e-08
9.3632277e-08
9.3633156e-08
9.363415e-08
9.3634274e-08
9.3633955e-08
9.3633539e-08
9.3633285e-08
9.3633231e-08
9.3633135e-08
9.3632829e-08
9.3632367e-08
9.3631849e-08
9.3631376e-08
9.3630993e-08
9.3630675e-08
9.3630374e-08
9.3630062e-08
9.3629746e-08
9.3629419e-08
9.3629082e-08
9.3628729e-08
9.3628389e-08
9.3628034e-08
9.3627694e-08
9.3627334e-08
9.3626951e-08
9.3626557e-08
9.3626152e-08
9.3625732e-08
9.3625307e-08
9.3624869e-08
9.3624428e-08
9.3623969e-08
9.3623509e-08
9.3623034e-08
9.3622568e-08
9.3622086e-08
9.3621615e-08
9.362113e-08
9.3620656e-08
9.3620159e-08
9.3619651e-08
9.3619092e-08
9.3618493e-08
9.3617824e-08
9.3617113e-08
9.3616349e-08
9.3615572e-08
9.361477e-08
9.3613974e-08
9.3613167e-08
9.3612371e-08
9.3611556e-08
9.3610741e-08
9.3609896e-08
9.3609039e-08
9.3608146e-08
9.3607236e-08
9.3606282e-08
9.3605305e-08
9.360428e-08
9.3603241e-08
9.360215e-08
9.3601029e-08
9.3599818e-08
9.3598519e-08
9.3597117e-08
3.1079526e-11
4.2511492e-10
6.5042537e-09
2.855787e-08
5.8835615e-08
8.0188071e-08
9.0118982e-08
9.3626011e-08
9.4485253e-08
9.4524435e-08
9.4417902e-08
9.4340497e-08
9.4304839e-08
9.429228e-08
9.4290891e-08
9.4291827e-08
9.4292054e-08
9.4291678e-08
9.4291036e-08
9.4290326e-08
9.4289774e-08
9.4289372e-08
9.4288899e-08
9.4288258e-08
9.4287485e-08
9.42867e-08
9.4285969e-08
9.428534e-08
9.4284752e-08
9.4284183e-08
9.4283589e-08
9.4283008e-08
9.4282405e-08
9.4281821e-08
9.4281212e-08
9.4280632e-08
9.4280015e-08
9.4279427e-08
9.4278804e-08
9.4278174e-08
9.4277531e-08
9.4276883e-08
9.4276214e-08
9.4275548e-08
9.4274861e-08
9.4274175e-08
9.4273462e-08
9.4272748e-08
9.4272012e-08
9.4271288e-08
9.4270541e-08
9.4269806e-08
9.4269058e-08
9.426832e-08
9.4267561e-08
9.4266788e-08
9.4265964e-08
9.426509e-08
9.4264141e-08
9.4263136e-08
9.4262068e-08
9.4260971e-08
9.4259843e-08
9.4258712e-08
9.425756e-08
9.4256412e-08
9.425524e-08
9.4254054e-08
9.4252828e-08
9.4251574e-08
9.4250272e-08
9.424893e-08
9.4247524e-08
9.4246067e-08
9.4244543e-08
9.4242972e-08
9.4241327e-08
9.4239612e-08
9.4237771e-08
9.4235784e-08
9.4233644e-08
3.331931e-11
5.4176583e-10
8.1265344e-09
3.3350746e-08
6.4388072e-08
8.4003314e-08
9.220451e-08
9.4774105e-08
9.525341e-08
9.5186102e-08
9.5071967e-08
9.500764e-08
9.4981612e-08
9.497454e-08
9.4974986e-08
9.4975314e-08
9.4974842e-08
9.4974091e-08
9.4973152e-08
9.4972149e-08
9.4971286e-08
9.4970542e-08
9.496971e-08
9.4968738e-08
9.4967678e-08
9.4966639e-08
9.4965669e-08
9.4964795e-08
9.4963953e-08
9.4963122e-08
9.4962268e-08
9.4961429e-08
9.4960574e-08
9.4959741e-08
9.495889e-08
9.4958065e-08
9.4957209e-08
9.4956377e-08
9.4955511e-08
9.4954641e-08
9.4953757e-08
9.4952869e-08
9.4951968e-08
9.4951063e-08
9.4950144e-08
9.4949217e-08
9.494827e-08
9.494731e-08
9.494633e-08
9.4945346e-08
9.4944357e-08
9.4943364e-08
9.4942373e-08
9.4941375e-08
9.4940372e-08
9.4939339e-08
9.4938267e-08
9.4937125e-08
9.4935913e-08
9.493462e-08
9.4933263e-08
9.4931853e-08
9.4930413e-08
9.4928954e-08
9.4927485e-08
9.4926e-08
9.4924494e-08
9.4922949e-08
9.4921363e-08
9.4919721e-08
9.4918027e-08
9.4916265e-08
9.4914433e-08
9.4912517e-08
9.4910518e-08
9.4908433e-08
9.4906257e-08
9.4903971e-08
9.4901528e-08
9.4898886e-08
9.4896036e-08
3.6432866e-11
6.9360468e-10
1.0113747e-08
3.8615896e-08
6.9839098e-08
8.7458384e-08
9.4009953e-08
9.5790376e-08
9.5987929e-08
9.5861499e-08
9.5754891e-08
9.570513e-08
9.5687072e-08
9.5684918e-08
9.5685416e-08
9.5684913e-08
9.5683924e-08
9.5682887e-08
9.568166e-08
9.5680362e-08
9.567919e-08
9.5678102e-08
9.5676927e-08
9.5675649e-08
9.5674323e-08
9.5673042e-08
9.5671842e-08
9.5670728e-08
9.5669639e-08
9.5668558e-08
9.5667463e-08
9.5666379e-08
9.5665287e-08
9.5664211e-08
9.5663125e-08
9.5662064e-08
9.5660979e-08
9.5659918e-08
9.5658822e-08
9.5657729e-08
9.5656615e-08
9.5655494e-08
9.5654365e-08
9.565323e-08
9.5652084e-08
9.5650925e-08
9.5649755e-08
9.5648563e-08
9.564736e-08
9.5646138e-08
9.5644918e-08
9.5643679e-08
9.564245e-08
9.5641205e-08
9.5639963e-08
9.5638685e-08
9.5637372e-08
9.563598e-08
9.5634512e-08
9.5632948e-08
9.5631314e-08
9.5629612e-08
9.5627881e-08
9.5626117e-08
9.5624343e-08
9.562254e-08
9.5620711e-08
9.5618826e-08
9.5616891e-08
9.5614883e-08
9.5612812e-08
9.5610657e-08
9.5608417e-08
9.5606071e-08
9.5603616e-08
9.5601046e-08
9.5598361e-08
9.5595539e-08
9.5592524e-08
9.5589265e-08
9.5585738e-08
4.0718144e-11
8.9325907e-10
1.2537447e-08
4.4324725e-08
7.5108183e-08
9.0520811e-08
9.5576876e-08
9.6710611e-08
9.6710549e-08
9.6560699e-08
9.6470718e-08
9.6433994e-08
9.6424085e-08
9.6424142e-08
9.6423891e-08
9.6422625e-08
9.6421301e-08
9.6420014e-08
9.6418501e-08
9.6416902e-08
9.6415424e-08
9.6414001e-08
9.6412514e-08
9.6410956e-08
9.6409389e-08
9.640788e-08
9.640646e-08
9.6405112e-08
9.6403786e-08
9.6402465e-08
9.6401141e-08
9.639983e-08
9.6398515e-08
9.6397213e-08
9.6395904e-08
9.6394618e-08
9.6393313e-08
9.6392034e-08
9.6390723e-08
9.6389426e-08
9.6388098e-08
9.6386759e-08
9.6385413e-08
9.638406e-08
9.63827e-08
9.6381323e-08
9.6379939e-08
9.6378533e-08
9.6377116e-08
9.6375677e-08
9.6374231e-08
9.6372769e-08
9.6371305e-08
9.6369831e-08
9.6368353e-08
9.6366852e-08
9.6365307e-08
9.6363688e-08
9.6361977e-08
9.6360168e-08
9.6358272e-08
9.6356306e-08
9.6354294e-08
9.6352248e-08
9.635018e-08
9.6348079e-08
9.6345939e-08
9.634374e-08
9.6341472e-08
9.6339125e-08
9.6336696e-08
9.6334176e-08
9.633155e-08
9.6328805e-08
9.632592e-08
9.6322897e-08
9.6319729e-08
9.6316407e-08
9.6312855e-08
9.6309017e-08
9.6304854e-08
4.6584718e-11
1.1597922e-09
1.5473575e-08
5.0413691e-08
8.0111273e-08
9.3060699e-08
9.6939894e-08
9.7562901e-08
9.7439064e-08
9.72923e-08
9.7222226e-08
9.7196861e-08
9.7193389e-08
9.7193641e-08
9.7192444e-08
9.719062e-08
9.7189073e-08
9.7187552e-08
9.7185742e-08
9.718385e-08
9.718206e-08
9.7180327e-08
9.7178553e-08
9.7176751e-08
9.7174961e-08
9.7173246e-08
9.7171613e-08
9.7170044e-08
9.7168488e-08
9.7166946e-08
9.7165403e-08
9.7163881e-08
9.7162356e-08
9.716085e-08
9.7159333e-08
9.7157841e-08
9.7156326e-08
9.7154844e-08
9.7153325e-08
9.7151838e-08
9.7150311e-08
9.7148777e-08
9.7147229e-08
9.7145679e-08
9.7144115e-08
9.7142542e-08
9.7140952e-08
9.7139349e-08
9.7137726e-08
9.7136089e-08
9.713443e-08
9.7132761e-08
9.7131075e-08
9.712939e-08
9.7127691e-08
9.7125985e-08
9.7124228e-08
9.7122406e-08
9.7120476e-08
9.7118445e-08
9.7116305e-08
9.7114092e-08
9.7111816e-08
9.7109507e-08
9.710716e-08
9.7104785e-08
9.7102355e-08
9.7099865e-08
9.7097288e-08
9.709463e-08
9.7091869e-08
9.7089014e-08
9.7086031e-08
9.7082919e-08
9.7079637e-08
9.7076196e-08
9.7072578e-08
9.706879e-08
9.7064744e-08
9.7060371e-08
9.7055617e-08
5.4613562e-11
1.5228752e-09
1.9001354e-08
5.6795118e-08
8.4770263e-08
9.540031e-08
9.8125055e-08
9.837123e-08
9.8190302e-08
9.8062416e-08
9.8010775e-08
9.7996406e-08
9.7996046e-08
9.7995477e-08
9.7993424e-08
9.7991258e-08
9.7989558e-08
9.7987801e-08
9.7985703e-08
9.7983515e-08
9.7981429e-08
9.7979408e-08
9.7977385e-08
9.7975365e-08
9.7973378e-08
9.7971472e-08
9.7969643e-08
9.7967866e-08
9.7966099e-08
9.7964352e-08
9.7962608e-08
9.796089e-08
9.7959171e-08
9.7957478e-08
9.7955773e-08
9.7954092e-08
9.7952388e-08
9.7950716e-08
9.7949009e-08
9.794734e-08
9.7945629e-08
9.7943918e-08
9.7942192e-08
9.7940463e-08
9.7938716e-08
9.7936962e-08
9.7935186e-08
9.79334e-08
9.7931588e-08
9.7929766e-08
9.7927914e-08
9.7926054e-08
9.7924169e-08
9.7922287e-08
9.7920392e-08
9.7918497e-08
9.7916557e-08
9.7914552e-08
9.791243e-08
9.7910194e-08
9.7907836e-08
9.7905393e-08
9.7902876e-08
9.7900321e-08
9.7897721e-08
9.7895091e-08
9.78924e-08
9.7889645e-08
9.7886792e-08
9.7883852e-08
9.7880797e-08
9.7877635e-08
9.7874331e-08
9.7870882e-08
9.7867243e-08
9.786342e-08
9.7859392e-08
9.7855178e-08
9.7850687e-08
9.784583e-08
9.7840534e-08
6.5591294e-11
2.0270811e-09
2.3196229e-08
6.3356717e-08
8.9037318e-08
9.7410798e-08
9.9179552e-08
9.9172243e-08
9.8976172e-08
9.8874887e-08
9.8839191e-08
9.8833697e-08
9.8833788e-08
9.8832189e-08
9.8829498e-08
9.8827161e-08
9.8825335e-08
9.8823346e-08
9.8820965e-08
9.8818496e-08
9.8816133e-08
9.881386e-08
9.8811619e-08
9.8809405e-08
9.880724e-08
9.8805163e-08
9.8803155e-08
9.8801189e-08
9.8799233e-08
9.8797301e-08
9.8795376e-08
9.8793481e-08
9.8791588e-08
9.8789723e-08
9.878785e-08
9.8786001e-08
9.8784132e-08
9.8782292e-08
9.8780418e-08
9.8778584e-08
9.8776705e-08
9.8774831e-08
9.8772949e-08
9.8771059e-08
9.8769154e-08
9.8767238e-08
9.87653e-08
9.8763348e-08
9.8761371e-08
9.875938e-08
9.8757361e-08
9.8755326e-08
9.8753269e-08
9.8751208e-08
9.8749141e-08
9.8747074e-08
9.8744978e-08
9.8742812e-08
9.8740529e-08
9.8738113e-08
9.8735564e-08
9.8732913e-08
9.8730181e-08
9.8727401e-08
9.8724578e-08
9.872172e-08
9.8718803e-08
9.8715815e-08
9.8712726e-08
9.8709535e-08
9.870622e-08
9.8702783e-08
9.8699194e-08
9.8695445e-08
9.8691493e-08
9.8687331e-08
9.8682941e-08
9.8678347e-08
9.8673466e-08
9.8668184e-08
9.8662405e-08
8.0549321e-11
2.726233e-09
2.8123417e-08
6.9966546e-08
9.2870706e-08
9.9137961e-08
1.0015076e-07
9.9987748e-08
9.9806243e-08
9.9731871e-08
9.9710931e-08
9.9709982e-08
9.970923e-08
9.9706704e-08
9.9703641e-08
9.9701221e-08
9.9699281e-08
9.9697069e-08
9.9694418e-08
9.9691693e-08
9.9689088e-08
9.9686606e-08
9.9684174e-08
9.968179e-08
9.9679467e-08
9.967724e-08
9.9675071e-08
9.9672943e-08
9.9670822e-08
9.9668732e-08
9.9666649e-08
9.9664601e-08
9.9662554e-08
9.966054e-08
9.9658516e-08
9.9656525e-08
9.9654509e-08
9.9652531e-08
9.9650508e-08
9.964854e-08
9.9646508e-08
9.9644498e-08
9.9642475e-08
9.9640447e-08
9.9638402e-08
9.9636351e-08
9.9634274e-08
9.9632184e-08
9.9630064e-08
9.9627931e-08
9.9625768e-08
9.9623588e-08
9.9621381e-08
9.9619166e-08
9.9616942e-08
9.9614729e-08
9.9612497e-08
9.9610208e-08
9.9607791e-08
9.9605229e-08
9.9602513e-08
9.9599686e-08
9.9596764e-08
9.9593796e-08
9.959078e-08
9.9587734e-08
9.9584624e-08
9.9581443e-08
9.9578149e-08
9.9574747e-08
9.9571206e-08
9.9567537e-08
9.9563702e-08
9.9559701e-08
9.9555481e-08
9.9551036e-08
9.9546334e-08
9.9541417e-08
9.9536206e-08
9.9530569e-08
9.9524371e-08
1.0093796e-10
3.6616935e-09
3.3843824e-08
7.6479263e-08
9.6184879e-08
1.0062828e-07
1.0107562e-07
1.008369e-07
1.0068705e-07
1.0063626e-07
1.0062761e-07
1.0062739e-07
1.0062552e-07
1.0062234e-07
1.0061911e-07
1.0061666e-07
1.0061462e-07
1.0061219e-07
1.0060929e-07
1.0060635e-07
1.0060355e-07
1.006009e-07
1.0059831e-07
1.0059578e-07
1.0059333e-07
1.0059097e-07
1.0058867e-07
1.005864e-07
1.0058415e-07
1.0058193e-07
1.0057972e-07
1.0057754e-07
1.0057537e-07
1.0057323e-07
1.0057108e-07
1.0056897e-07
1.0056683e-07
1.0056474e-07
1.005626e-07
1.0056052e-07
1.0055837e-07
1.0055625e-07
1.0055411e-07
1.0055196e-07
1.0054981e-07
1.0054764e-07
1.0054546e-07
1.0054325e-07
1.0054102e-07
1.0053878e-07
1.005365e-07
1.005342e-07
1.0053187e-07
1.0052953e-07
1.0052718e-07
1.0052484e-07
1.005225e-07
1.0052012e-07
1.0051761e-07
1.0051494e-07
1.005121e-07
1.0050913e-07
1.0050606e-07
1.0050293e-07
1.0049976e-07
1.0049656e-07
1.004933e-07
1.0048996e-07
1.0048651e-07
1.0048294e-07
1.0047922e-07
1.0047536e-07
1.0047133e-07
1.0046713e-07
1.004627e-07
1.0045803e-07
1.0045308e-07
1.004479e-07
1.0044243e-07
1.0043652e-07
1.0042998e-07
1.2916725e-10
4.9380117e-09
4.0435104e-08
8.2742526e-08
9.8546211e-08
1.0193643e-07
1.0198633e-07
1.0173267e-07
1.0162263e-07
1.015921e-07
1.0159017e-07
1.0158919e-07
1.0158638e-07
1.0158284e-07
1.0157955e-07
1.0157711e-07
1.0157502e-07
1.0157238e-07
1.0156925e-07
1.0156614e-07
1.0156321e-07
1.0156043e-07
1.0155771e-07
1.0155507e-07
1.0155252e-07
1.0155007e-07
1.0154765e-07
1.0154528e-07
1.0154292e-07
1.0154061e-07
1.015383e-07
1.0153603e-07
1.0153376e-07
1.0153153e-07
1.0152928e-07
1.0152708e-07
1.0152485e-07
1.0152268e-07
1.0152044e-07
1.0151828e-07
1.0151604e-07
1.0151385e-07
1.0151162e-07
1.0150939e-07
1.0150715e-07
1.015049e-07
1.0150264e-07
1.0150035e-07
1.0149805e-07
1.0149572e-07
1.0149336e-07
1.0149098e-07
1.0148856e-07
1.0148613e-07
1.0148367e-07
1.0148123e-07
1.0147882e-07
1.0147639e-07
1.0147384e-07
1.014711e-07
1.0146817e-07
1.014651e-07
1.0146192e-07
1.0145868e-07
1.014554e-07
1.0145209e-07
1.0144872e-07
1.0144527e-07
1.0144171e-07
1.0143802e-07
1.0143418e-07
1.0143019e-07
1.0142602e-07
1.0142168e-07
1.014171e-07
1.0141228e-07
1.0140715e-07
1.0140178e-07
1.0139613e-07
1.0139004e-07
1.0138324e-07
1.6887514e-10
6.6745334e-09
4.7898153e-08
8.8609748e-08
1.0105688e-07
1.0307974e-07
1.0290344e-07
1.0268894e-07
1.0261601e-07
1.0260219e-07
1.026016e-07
1.0259946e-07
1.0259603e-07
1.0259237e-07
1.0258908e-07
1.0258673e-07
1.0258461e-07
1.0258178e-07
1.0257845e-07
1.0257523e-07
1.0257222e-07
1.0256935e-07
1.0256654e-07
1.0256383e-07
1.0256123e-07
1.0255871e-07
1.0255622e-07
1.0255378e-07
1.0255136e-07
1.0254898e-07
1.025466e-07
1.0254428e-07
1.0254195e-07
1.0253966e-07
1.0253736e-07
1.0253511e-07
1.0253282e-07
1.0253059e-07
1.025283e-07
1.0252609e-07
1.025238e-07
1.0252157e-07
1.0251928e-07
1.0251701e-07
1.0251472e-07
1.0251243e-07
1.0251011e-07
1.0250779e-07
1.0250544e-07
1.0250307e-07
1.0250066e-07
1.0249824e-07
1.0249577e-07
1.0249329e-07
1.0249077e-07
1.0248826e-07
1.0248579e-07
1.0248338e-07
1.0248084e-07
1.0247808e-07
1.0247511e-07
1.0247199e-07
1.0246874e-07
1.0246543e-07
1.0246209e-07
1.0245872e-07
1.024553e-07
1.024518e-07
1.0244819e-07
1.0244444e-07
1.0244054e-07
1.0243649e-07
1.0243224e-07
1.0242782e-07
1.0242317e-07
1.0241828e-07
1.0241306e-07
1.0240758e-07
1.0240185e-07
1.0239569e-07
1.0238873e-07
2.2597285e-10
9.0375792e-09
5.6162961e-08
9.3955733e-08
1.0310188e-07
1.0414425e-07
1.0387725e-07
1.0371524e-07
1.0367122e-07
1.0366716e-07
1.0366607e-07
1.0366298e-07
1.0365925e-07
1.036556e-07
1.0365237e-07
1.0365019e-07
1.0364812e-07
1.0364509e-07
1.0364161e-07
1.0363835e-07
1.036353e-07
1.0363238e-07
1.0362954e-07
1.0362682e-07
1.036242e-07
1.0362166e-07
1.0361915e-07
1.0361668e-07
1.0361423e-07
1.0361183e-07
1.0360944e-07
1.036071e-07
1.0360475e-07
1.0360245e-07
1.0360013e-07
1.0359786e-07
1.0359556e-07
1.0359332e-07
1.0359102e-07
1.0358879e-07
1.0358649e-07
1.0358427e-07
1.0358196e-07
1.035797e-07
1.035774e-07
1.035751e-07
1.0357278e-07
1.0357045e-07
1.035681e-07
1.0356573e-07
1.0356333e-07
1.035609e-07
1.0355844e-07
1.0355595e-07
1.0355343e-07
1.0355089e-07
1.0354839e-07
1.0354603e-07
1.0354358e-07
1.0354087e-07
1.0353792e-07
1.0353479e-07
1.0353153e-07
1.0352821e-07
1.0352486e-07
1.035215e-07
1.0351809e-07
1.0351461e-07
1.0351101e-07
1.0350728e-07
1.0350339e-07
1.0349935e-07
1.034951e-07
1.0349069e-07
1.0348605e-07
1.0348118e-07
1.0347597e-07
1.0347048e-07
1.0346478e-07
1.0345868e-07
1.0345169e-07
3.105958e-10
1.2253771e-08
6.4988984e-08
9.8716028e-08
1.0486072e-07
1.0519972e-07
1.0492189e-07
1.0481325e-07
1.0479175e-07
1.0479103e-07
1.0478886e-07
1.047852e-07
1.0478146e-07
1.0477791e-07
1.0477479e-07
1.0477289e-07
1.0477094e-07
1.0476773e-07
1.0476417e-07
1.0476092e-07
1.0475787e-07
1.0475496e-07
1.0475214e-07
1.0474947e-07
1.047469e-07
1.0474439e-07
1.047419e-07
1.0473946e-07
1.0473704e-07
1.0473467e-07
1.0473231e-07
1.0473e-07
1.0472768e-07
1.0472541e-07
1.0472312e-07
1.0472089e-07
1.0471862e-07
1.0471642e-07
1.0471415e-07
1.0471197e-07
1.047097e-07
1.0470752e-07
1.0470525e-07
1.0470305e-07
1.0470078e-07
1.0469854e-07
1.0469626e-07
1.0469399e-07
1.0469167e-07
1.0468936e-07
1.0468701e-07
1.0468464e-07
1.0468223e-07
1.046798e-07
1.0467733e-07
1.0467483e-07
1.0467234e-07
1.0467004e-07
1.0466777e-07
1.0466519e-07
1.0466231e-07
1.0465925e-07
1.0465604e-07
1.0465279e-07
1.046495e-07
1.0464622e-07
1.0464289e-07
1.0463951e-07
1.04636e-07
1.0463237e-07
1.0462858e-07
1.0462463e-07
1.0462047e-07
1.0461616e-07
1.0461164e-07
1.0460691e-07
1.0460183e-07
1.0459645e-07
1.045909e-07
1.04585e-07
1.0457812e-07
4.4075858e-10
1.6635404e-08
7.4217574e-08
1.0284032e-07
1.0638148e-07
1.0628539e-07
1.0605082e-07
1.0598733e-07
1.0598056e-07
1.0597933e-07
1.0597624e-07
1.0597239e-07
1.0596883e-07
1.0596545e-07
1.059625e-07
1.0596104e-07
1.0595927e-07
1.0595591e-07
1.0595237e-07
1.0594914e-07
1.0594613e-07
1.0594332e-07
1.0594063e-07
1.0593809e-07
1.0593562e-07
1.059332e-07
1.059308e-07
1.0592845e-07
1.0592612e-07
1.0592384e-07
1.0592156e-07
1.0591934e-07
1.0591711e-07
1.0591493e-07
1.0591274e-07
1.0591059e-07
1.0590842e-07
1.0590631e-07
1.0590414e-07
1.0590205e-07
1.0589987e-07
1.058978e-07
1.0589562e-07
1.0589353e-07
1.0589134e-07
1.0588923e-07
1.0588704e-07
1.0588489e-07
1.0588267e-07
1.0588048e-07
1.0587823e-07
1.0587599e-07
1.058737e-07
1.0587139e-07
1.0586903e-07
1.0586666e-07
1.0586426e-07
1.0586204e-07
1.0585994e-07
1.0585766e-07
1.0585495e-07
1.0585203e-07
1.0584895e-07
1.0584583e-07
1.0584269e-07
1.0583957e-07
1.0583641e-07
1.0583321e-07
1.058299e-07
1.0582646e-07
1.0582287e-07
1.0581914e-07
1.0581517e-07
1.0581108e-07
1.0580678e-07
1.0580232e-07
1.0579753e-07
1.0579238e-07
1.0578714e-07
1.0578162e-07
1.0577503e-07
6.5105922e-10
2.261043e-08
8.4106689e-08
1.053568e-07
1.0773358e-07
1.0743859e-07
1.0727229e-07
1.0724225e-07
1.0724104e-07
1.0723876e-07
1.0723536e-07
1.0723167e-07
1.0722842e-07
1.072253e-07
1.0722259e-07
1.072217e-07
1.0722019e-07
1.0721675e-07
1.0721327e-07
1.0721012e-07
1.0720728e-07
1.0720467e-07
1.0720222e-07
1.0719988e-07
1.0719757e-07
1.0719532e-07
1.0719308e-07
1.0719089e-07
1.0718872e-07
1.071866e-07
1.0718449e-07
1.0718242e-07
1.0718035e-07
1.0717833e-07
1.0717629e-07
1.0717431e-07
1.0717229e-07
1.0717034e-07
1.0716833e-07
1.071664e-07
1.071644e-07
1.0716248e-07
1.0716047e-07
1.0715855e-07
1.0715654e-07
1.071546e-07
1.0715258e-07
1.0715062e-07
1.0714857e-07
1.0714658e-07
1.071445e-07
1.0714247e-07
1.0714036e-07
1.0713827e-07
1.071361e-07
1.0713393e-07
1.0713173e-07
1.0712967e-07
1.0712774e-07
1.0712587e-07
1.0712347e-07
1.0712078e-07
1.0711791e-07
1.0711502e-07
1.0711213e-07
1.0710927e-07
1.0710637e-07
1.0710347e-07
1.0710047e-07
1.0709733e-07
1.0709407e-07
1.0709068e-07
1.0708703e-07
1.0708329e-07
1.0707937e-07
1.0707533e-07
1.07071e-07
1.0706626e-07
1.0706148e-07
1.0705654e-07
1.0705046e-07
1.0452338e-09
3.0751047e-08
9.3234936e-08
1.0778443e-07
1.0894238e-07
1.0867378e-07
1.0859046e-07
1.0858194e-07
1.0858057e-07
1.0857749e-07
1.0857423e-07
1.0857095e-07
1.0856815e-07
1.0856542e-07
1.0856302e-07
1.085628e-07
1.0856162e-07
1.0855824e-07
1.0855487e-07
1.0855192e-07
1.0854941e-07
1.0854714e-07
1.08545e-07
1.0854293e-07
1.0854088e-07
1.0853887e-07
1.0853689e-07
1.0853494e-07
1.0853302e-07
1.0853114e-07
1.0852927e-07
1.0852744e-07
1.0852561e-07
1.0852383e-07
1.0852203e-07
1.0852029e-07
1.0851852e-07
1.085168e-07
1.0851504e-07
1.0851334e-07
1.085116e-07
1.0850991e-07
1.0850816e-07
1.0850649e-07
1.0850473e-07
1.0850305e-07
1.0850129e-07
1.0849959e-07
1.0849782e-07
1.0849609e-07
1.084943e-07
1.0849254e-07
1.0849071e-07
1.0848891e-07
1.0848703e-07
1.0848517e-07
1.0848326e-07
1.0848146e-07
1.0847982e-07
1.0847832e-07
1.0847646e-07
1.0847411e-07
1.0847157e-07
1.0846902e-07
1.084665e-07
1.0846403e-07
1.084615e-07
1.0845899e-07
1.0845646e-07
1.0845376e-07
1.0845096e-07
1.0844807e-07
1.0844491e-07
1.0844169e-07
1.0843832e-07
1.0843486e-07
1.0843118e-07
1.0842709e-07
1.0842297e-07
1.0841882e-07
1.0841354e-07
2.1285485e-09
4.1739008e-08
1.0161131e-07
1.0998209e-07
1.1020864e-07
1.1003952e-07
1.1001092e-07
1.1000967e-07
1.1000741e-07
1.1000433e-07
1.1000163e-07
1.0999899e-07
1.0999685e-07
1.0999461e-07
1.0999249e-07
1.0999294e-07
1.0999221e-07
1.0998918e-07
1.0998604e-07
1.0998348e-07
1.0998144e-07
1.099796e-07
1.0997785e-07
1.0997614e-07
1.0997445e-07
1.099728e-07
1.0997117e-07
1.0996958e-07
1.0996801e-07
1.0996646e-07
1.0996494e-07
1.0996345e-07
1.0996197e-07
1.0996051e-07
1.0995907e-07
1.0995765e-07
1.0995622e-07
1.0995483e-07
1.0995343e-07
1.0995205e-07
1.0995066e-07
1.0994931e-07
1.0994792e-07
1.0994657e-07
1.0994519e-07
1.0994385e-07
1.0994246e-07
1.0994111e-07
1.0993972e-07
1.0993835e-07
1.0993695e-07
1.0993556e-07
1.0993413e-07
1.0993272e-07
1.0993126e-07
1.0992981e-07
1.0992831e-07
1.099269e-07
1.0992564e-07
1.0992459e-07
1.0992337e-07
1.0992155e-07
1.0991946e-07
1.0991737e-07
1.0991538e-07
1.0991345e-07
1.0991142e-07
1.0990945e-07
1.0990753e-07
1.0990545e-07
1.0990328e-07
1.0990106e-07
1.0989858e-07
1.0989609e-07
1.0989347e-07
1.098908e-07
1.0988797e-07
1.0988483e-07
1.0988157e-07
1.0987847e-07
1.0987434e-07
4.4274672e-09
5.7958915e-08
1.0878785e-07
1.1175686e-07
1.116022e-07
1.1153575e-07
1.1153222e-07
1.1153137e-07
1.1152923e-07
1.1152692e-07
1.1152503e-07
1.1152329e-07
1.1152196e-07
1.1152032e-07
1.1151851e-07
1.1151933e-07
1.1151928e-07
1.1151701e-07
1.1151437e-07
1.1151245e-07
1.1151099e-07
1.1150969e-07
1.1150844e-07
1.1150722e-07
1.1150603e-07
1.1150487e-07
1.1150373e-07
1.1150262e-07
1.1150152e-07
1.1150045e-07
1.1149939e-07
1.1149836e-07
1.1149734e-07
1.1149634e-07
1.1149535e-07
1.1149438e-07
1.1149341e-07
1.1149247e-07
1.1149152e-07
1.114906e-07
1.1148967e-07
1.1148876e-07
1.1148785e-07
1.1148695e-07
1.1148604e-07
1.1148516e-07
1.1148425e-07
1.1148338e-07
1.1148247e-07
1.1148159e-07
1.1148069e-07
1.114798e-07
1.1147889e-07
1.11478e-07
1.1147707e-07
1.1147616e-07
1.1147521e-07
1.1147433e-07
1.1147355e-07
1.1147302e-07
1.114725e-07
1.1147144e-07
1.1146994e-07
1.1146847e-07
1.1146718e-07
1.1146597e-07
1.1146461e-07
1.1146332e-07
1.1146219e-07
1.1146093e-07
1.1145957e-07
1.114582e-07
1.1145662e-07
1.1145508e-07
1.1145342e-07
1.1145179e-07
1.1145005e-07
1.1144814e-07
1.1144601e-07
1.1144425e-07
1.114416e-07
8.4746768e-09
8.1625101e-08
1.1348557e-07
1.1331707e-07
1.1315028e-07
1.1314121e-07
1.1314222e-07
1.1314147e-07
1.1314035e-07
1.131393e-07
1.1313841e-07
1.1313771e-07
1.1313715e-07
1.1313647e-07
1.1313567e-07
1.1313616e-07
1.1313624e-07
1.1313505e-07
1.1313361e-07
1.1313274e-07
1.1313211e-07
1.1313153e-07
1.1313097e-07
1.1313043e-07
1.131299e-07
1.1312939e-07
1.1312889e-07
1.1312841e-07
1.1312794e-07
1.1312748e-07
1.1312703e-07
1.131266e-07
1.1312617e-07
1.1312576e-07
1.1312536e-07
1.1312498e-07
1.1312459e-07
1.1312423e-07
1.1312386e-07
1.1312351e-07
1.1312317e-07
1.1312283e-07
1.131225e-07
1.1312219e-07
1.1312187e-07
1.1312157e-07
1.1312126e-07
1.1312097e-07
1.1312068e-07
1.131204e-07
1.1312011e-07
1.1311985e-07
1.1311957e-07
1.1311931e-07
1.1311903e-07
1.1311878e-07
1.131185e-07
1.1311827e-07
1.1311808e-07
1.1311805e-07
1.1311812e-07
1.1311799e-07
1.1311741e-07
1.1311684e-07
1.1311642e-07
1.1311607e-07
1.1311559e-07
1.1311521e-07
1.1311494e-07
1.1311467e-07
1.1311431e-07
1.131139e-07
1.1311348e-07
1.1311312e-07
1.1311267e-07
1.1311227e-07
1.1311183e-07
1.1311131e-07
1.1311067e-07
1.1311039e-07
1.1310965e-07
8.4271356e-08
8.4271422e-08
8.4273e-08
8.4272773e-08
8.4273146e-08
8.4273269e-08
8.4273497e-08
8.4273693e-08
8.4273903e-08
8.4274111e-08
8.4274323e-08
8.4274537e-08
8.4274755e-08
8.4274976e-08
8.4275201e-08
8.4275429e-08
8.4275664e-08
8.4275903e-08
8.4276153e-08
8.4276408e-08
8.4276675e-08
8.4276944e-08
8.4277219e-08
8.4277485e-08
8.4277745e-08
8.4277982e-08
8.4278206e-08
8.4278399e-08
8.4278581e-08
8.4278734e-08
8.427888e-08
8.4279003e-08
8.4279129e-08
8.4279234e-08
8.4279347e-08
8.427944e-08
8.4279537e-08
8.4279607e-08
8.4279669e-08
8.4279696e-08
8.4279708e-08
8.4279685e-08
8.427965e-08
8.4279586e-08
8.4279517e-08
8.4279428e-08
8.4279344e-08
8.4279255e-08
8.4279181e-08
8.4279111e-08
8.4279052e-08
8.4278975e-08
8.4278867e-08
8.4278688e-08
8.4278431e-08
8.4278101e-08
8.427779e-08
8.4277731e-08
8.4278467e-08
8.4280949e-08
8.4286371e-08
8.4294911e-08
8.4302097e-08
8.4290555e-08
8.4214408e-08
8.3973556e-08
8.3376981e-08
8.2098992e-08
7.9642913e-08
7.5346073e-08
6.8488566e-08
5.8586408e-08
4.5883937e-08
3.179893e-08
1.8736778e-08
8.9495006e-09
3.2499848e-09
8.3144755e-10
1.9093246e-10
1.0505854e-10
1.3496572e-10
8.4489469e-08
8.4489485e-08
8.4490596e-08
8.4490511e-08
8.4490821e-08
8.4490969e-08
8.4491198e-08
8.4491398e-08
8.4491617e-08
8.4491825e-08
8.4492046e-08
8.449226e-08
8.4492485e-08
8.4492705e-08
8.4492935e-08
8.4493162e-08
8.4493399e-08
8.4493636e-08
8.4493887e-08
8.449414e-08
8.4494407e-08
8.4494673e-08
8.4494948e-08
8.4495212e-08
8.4495471e-08
8.4495707e-08
8.4495929e-08
8.4496123e-08
8.4496301e-08
8.4496454e-08
8.4496595e-08
8.4496718e-08
8.4496835e-08
8.4496941e-08
8.4497046e-08
8.4497139e-08
8.4497227e-08
8.4497298e-08
8.4497352e-08
8.4497379e-08
8.4497384e-08
8.4497361e-08
8.4497319e-08
8.4497256e-08
8.449718e-08
8.4497093e-08
8.4497005e-08
8.4496916e-08
8.4496839e-08
8.4496769e-08
8.4496707e-08
8.449663e-08
8.4496519e-08
8.4496341e-08
8.4496083e-08
8.4495755e-08
8.4495444e-08
8.4495378e-08
8.4496074e-08
8.4498443e-08
8.4503661e-08
8.4512065e-08
8.4519916e-08
8.4511903e-08
8.4446778e-08
8.4233165e-08
8.3694188e-08
8.2523508e-08
8.0245144e-08
7.6207735e-08
6.9673594e-08
6.0087761e-08
4.7565418e-08
3.3393062e-08
1.995982e-08
9.6725893e-09
3.5555934e-09
9.0950476e-10
1.9865502e-10
9.5670643e-11
1.2167298e-10
8.471916e-08
8.4719092e-08
8.4720083e-08
8.4720027e-08
8.4720327e-08
8.4720488e-08
8.472072e-08
8.4720924e-08
8.4721148e-08
8.4721357e-08
8.4721582e-08
8.4721797e-08
8.4722026e-08
8.4722245e-08
8.4722477e-08
8.4722702e-08
8.472294e-08
8.4723174e-08
8.4723424e-08
8.4723674e-08
8.472394e-08
8.4724205e-08
8.4724479e-08
8.4724742e-08
8.4725001e-08
8.4725238e-08
8.4725459e-08
8.4725654e-08
8.4725829e-08
8.4725981e-08
8.4726118e-08
8.472624e-08
8.4726352e-08
8.4726457e-08
8.4726557e-08
8.4726651e-08
8.4726735e-08
8.4726807e-08
8.472686e-08
8.472689e-08
8.4726894e-08
8.4726874e-08
8.4726832e-08
8.4726771e-08
8.4726696e-08
8.472661e-08
8.472652e-08
8.4726431e-08
8.472635e-08
8.4726279e-08
8.4726217e-08
8.4726145e-08
8.4726043e-08
8.4725878e-08
8.4725633e-08
8.4725309e-08
8.4724964e-08
8.4724773e-08
8.4725162e-08
8.4726964e-08
8.4731429e-08
8.473953e-08
8.4749465e-08
8.4750431e-08
8.4709942e-08
8.4551493e-08
8.4120245e-08
8.3137752e-08
8.1155218e-08
7.7532186e-08
7.1498034e-08
6.2388118e-08
5.0125437e-08
3.5803683e-08
2.179231e-08
1.0741622e-08
4.0028418e-09
1.0250393e-09
2.1128191e-10
8.8572714e-11
1.1088373e-10
8.4961364e-08
8.4961291e-08
8.4962147e-08
8.4962128e-08
8.4962415e-08
8.496259e-08
8.4962824e-08
8.4963032e-08
8.4963258e-08
8.4963471e-08
8.4963698e-08
8.4963915e-08
8.4964145e-08
8.4964364e-08
8.4964596e-08
8.496482e-08
8.4965057e-08
8.496529e-08
8.4965539e-08
8.4965788e-08
8.4966053e-08
8.4966318e-08
8.4966591e-08
8.4966856e-08
8.4967113e-08
8.4967351e-08
8.496757e-08
8.4967765e-08
8.4967937e-08
8.4968088e-08
8.4968222e-08
8.4968342e-08
8.4968452e-08
8.4968556e-08
8.4968653e-08
8.4968747e-08
8.496883e-08
8.4968903e-08
8.4968955e-08
8.4968986e-08
8.496899e-08
8.4968972e-08
8.496893e-08
8.4968871e-08
8.4968796e-08
8.4968711e-08
8.496862e-08
8.496853e-08
8.4968447e-08
8.4968375e-08
8.4968311e-08
8.4968243e-08
8.4968146e-08
8.4967993e-08
8.496776e-08
8.4967444e-08
8.4967087e-08
8.496683e-08
8.4967023e-08
8.4968402e-08
8.4972181e-08
8.4979625e-08
8.4990144e-08
8.4996141e-08
8.4971946e-08
8.485347e-08
8.4505553e-08
8.3676564e-08
8.1947097e-08
7.8695633e-08
7.3134389e-08
6.4509851e-08
5.2565632e-08
3.8185713e-08
2.367085e-08
1.1876124e-08
4.4925954e-09
1.15596e-09
2.258847e-10
8.2335749e-11
1.0079859e-10
8.5216954e-08
8.5216885e-08
8.5217638e-08
8.521765e-08
8.5217928e-08
8.5218114e-08
8.521835e-08
8.5218562e-08
8.5218791e-08
8.5219006e-08
8.5219235e-08
8.5219453e-08
8.5219684e-08
8.5219905e-08
8.5220137e-08
8.5220361e-08
8.5220597e-08
8.522083e-08
8.5221078e-08
8.5221329e-08
8.5221594e-08
8.5221861e-08
8.5222134e-08
8.52224e-08
8.5222657e-08
8.5222895e-08
8.5223114e-08
8.5223307e-08
8.5223478e-08
8.5223628e-08
8.5223759e-08
8.5223878e-08
8.5223986e-08
8.5224089e-08
8.5224186e-08
8.5224278e-08
8.522436e-08
8.5224432e-08
8.5224485e-08
8.5224516e-08
8.5224522e-08
8.5224504e-08
8.5224464e-08
8.5224405e-08
8.5224331e-08
8.5224247e-08
8.5224156e-08
8.5224065e-08
8.522398e-08
8.5223905e-08
8.5223841e-08
8.5223776e-08
8.5223687e-08
8.5223545e-08
8.5223326e-08
8.522302e-08
8.5222657e-08
8.522234e-08
8.5222353e-08
8.5223325e-08
8.52264e-08
8.523305e-08
8.5243704e-08
8.5253637e-08
8.5243518e-08
8.5161165e-08
8.4890887e-08
8.4208587e-08
8.2726899e-08
7.9848959e-08
7.4778935e-08
6.6683638e-08
5.5125817e-08