/*--------------------------------*- C++ -*----------------------------------*\
| =========                 |                                                 |
| \\      /  F ield         | OpenFOAM: The Open Source CFD Toolbox           |
|  \\    /   O peration     | Version:  v2006                                 |
|   \\  /    A nd           | Website:  www.openfoam.com                      |
|    \\/     M anipulation  |                                                 |
\*---------------------------------------------------------------------------*/
FoamFile
{
    version     2.0;
    format      ascii;
    class       volScalarField;
    location    "6000";
    object      Cp;
}
// * * * * * * * * * * * * * * * * * * * * * * * * * * * * * * * * * * * * * //

dimensions      [0 0 0 0 0 0 0];


internalField   nonuniform List<scalar> 
102907
(
0.0054775481
0.005478083
0.0054780467
0.0054784397
0.0054784233
0.0054786865
0.0054787163
0.0054788756
0.0054789149
0.005478991
0.0054790798
0.0054792067
0.0054793562
0.0054795335
0.0054796843
0.0054797922
0.0054798458
0.0054798478
0.0054797935
0.0054797044
0.0054796346
0.005479607
0.0054796059
0.0054796006
0.0054795916
0.0054795949
0.0054796145
0.0054796479
0.0054796925
0.0054797306
0.005479739
0.0054796931
0.0054796597
0.0054796317
0.0054796139
0.0054795991
0.0054795804
0.0054795564
0.0054795289
0.0054795004
0.0054794749
0.0054794566
0.0054794439
0.00547943
0.0054794094
0.0054793836
0.005479352
0.0054793065
0.0054792459
0.0054791835
0.0054791325
0.0054790952
0.0054790672
0.0054790411
0.0054790142
0.0054789924
0.005478974
0.0054789385
0.0054788774
0.0054787927
0.0054786931
0.0054785893
0.0054784946
0.0054784083
0.0054783353
0.0054782786
0.0054782271
0.0054781727
0.0054781239
0.0054780835
0.0054780518
0.0054780242
0.0054779958
0.0054779615
0.005477921
0.0054778707
0.0054778146
0.005477755
0.0054776857
0.0054775979
0.0054774917
0.0051586801
0.0051597861
0.0051598418
0.0051606085
0.0051608117
0.0051613535
0.005161585
0.0051619555
0.0051621515
0.0051623675
0.0051625098
0.0051626854
0.0051628868
0.0051631754
0.0051635356
0.0051639369
0.0051642959
0.0051645953
0.0051648277
0.0051650055
0.0051651401
0.0051652193
0.0051652625
0.0051652781
0.0051652847
0.0051653005
0.0051653481
0.0051654448
0.0051656092
0.0051658284
0.0051660545
0.0051662128
0.0051662659
0.0051662199
0.0051661728
0.0051661322
0.0051660991
0.0051660878
0.0051660881
0.0051660791
0.0051660477
0.0051660048
0.0051659993
0.0051659996
0.0051659851
0.0051660434
0.0051661632
0.0051663325
0.0051664824
0.0051666401
0.005166838
0.0051670439
0.0051672001
0.0051673157
0.0051673814
0.0051674312
0.0051674758
0.0051674609
0.0051673734
0.0051672665
0.0051672104
0.0051672413
0.005167369
0.0051675747
0.0051678429
0.0051680792
0.0051682719
0.0051684353
0.0051685787
0.0051686473
0.0051687125
0.0051687758
0.0051688352
0.0051688808
0.0051689341
0.0051690448
0.0051692107
0.0051694334
0.0051697566
0.0051702001
0.0051704991
0.004869723
0.0048711648
0.0048713805
0.0048723644
0.0048727551
0.0048734693
0.0048738784
0.0048744321
0.0048748429
0.0048752791
0.0048756252
0.0048759261
0.0048761787
0.004876432
0.0048767284
0.0048770983
0.0048775385
0.0048780282
0.0048785035
0.0048789344
0.0048793151
0.0048796404
0.004879918
0.0048801558
0.00488035
0.0048805099
0.0048806426
0.0048807704
0.004880914
0.0048811079
0.0048813729
0.0048816895
0.004881951
0.0048821387
0.0048822678
0.0048823886
0.0048825408
0.0048827293
0.0048829296
0.004883119
0.0048832738
0.0048833808
0.0048834561
0.0048835317
0.0048836581
0.0048838331
0.0048840813
0.0048844087
0.0048848148
0.0048852375
0.0048855931
0.0048858285
0.0048859577
0.0048860127
0.0048860343
0.0048860399
0.0048860704
0.0048861314
0.0048862564
0.0048864452
0.0048867044
0.0048870535
0.0048874851
0.0048879716
0.0048883784
0.0048886889
0.004888899
0.0048890263
0.0048890898
0.0048891126
0.0048891205
0.0048891054
0.0048890917
0.0048890538
0.0048890718
0.0048890353
0.0048891812
0.0048892534
0.0048897053
0.0048899774
0.0048905601
0.0046061806
0.0046078352
0.0046081747
0.0046092919
0.0046098064
0.0046106304
0.0046111686
0.004611847
0.0046124044
0.0046130227
0.0046135771
0.0046140805
0.0046144913
0.0046148285
0.0046151247
0.0046154131
0.0046157432
0.0046161184
0.0046165478
0.0046170141
0.0046175049
0.0046179933
0.0046184446
0.0046188553
0.0046192204
0.0046195447
0.0046198317
0.0046200732
0.004620278
0.0046204734
0.0046207025
0.00462101
0.0046213969
0.0046217629
0.0046220888
0.0046223981
0.0046227112
0.0046230361
0.00462337
0.0046237088
0.0046240365
0.00462434
0.0046246249
0.0046249048
0.0046251993
0.0046254824
0.0046257493
0.0046260124
0.0046262935
0.0046265578
0.0046267693
0.0046269263
0.0046270645
0.0046272058
0.004627371
0.0046275786
0.004627838
0.0046281537
0.0046285448
0.0046290109
0.0046295438
0.0046301059
0.0046306115
0.0046310256
0.0046313465
0.0046315878
0.0046317594
0.0046319006
0.0046320263
0.0046321628
0.0046323416
0.0046325509
0.0046328203
0.0046331085
0.0046334567
0.0046337699
0.0046342099
0.0046344927
0.0046351579
0.0046353996
0.0046363206
0.0043675894
0.0043693707
0.0043698042
0.0043709981
0.004371596
0.0043724833
0.0043731098
0.0043738584
0.0043744665
0.0043751573
0.0043758015
0.004376448
0.0043770272
0.0043775326
0.0043779499
0.0043783011
0.0043786099
0.0043789134
0.0043792281
0.0043795765
0.0043799563
0.0043803747
0.0043808231
0.0043812923
0.0043817631
0.0043822007
0.0043825969
0.0043829486
0.0043832473
0.0043834958
0.0043837245
0.0043839861
0.004384324
0.0043847474
0.0043851924
0.0043856099
0.0043859739
0.0043862877
0.004386583
0.0043868983
0.0043872682
0.004387695
0.0043881297
0.0043885502
0.0043889382
0.0043892444
0.0043894872
0.0043896664
0.0043898116
0.0043899375
0.0043900723
0.0043902374
0.004390465
0.0043907522
0.004391082
0.0043914616
0.0043918959
0.0043923831
0.0043929093
0.0043934101
0.0043938721
0.0043942706
0.004394602
0.004394865
0.0043950626
0.0043952349
0.0043953967
0.004395599
0.0043958709
0.0043962309
0.0043966838
0.0043972093
0.0043978154
0.0043984544
0.0043991543
0.0043997991
0.0044005477
0.0044010552
0.0044019044
0.0044022751
0.004403381
0.004151679
0.0041535242
0.0041540139
0.0041552461
0.0041559073
0.0041568216
0.0041574838
0.004158227
0.0041588195
0.0041594411
0.0041600208
0.0041606519
0.0041613035
0.0041619325
0.0041624944
0.0041629866
0.0041634107
0.0041637768
0.004164105
0.0041644133
0.0041647235
0.0041650444
0.0041653943
0.0041657718
0.0041661829
0.0041666128
0.0041670519
0.0041674688
0.0041678439
0.0041681692
0.0041684452
0.0041686936
0.0041689592
0.0041692719
0.0041696296
0.0041699937
0.0041703398
0.0041706491
0.0041709217
0.0041711688
0.004171434
0.004171748
0.0041721106
0.0041724758
0.0041728237
0.0041731302
0.0041734075
0.0041736282
0.0041738107
0.0041739833
0.0041741835
0.0041744466
0.0041747779
0.0041751639
0.0041755985
0.004176073
0.0041765401
0.0041769815
0.0041773797
0.0041777236
0.0041780154
0.0041782495
0.0041784467
0.0041786236
0.0041788059
0.0041790389
0.0041793343
0.0041797398
0.0041802301
0.0041808151
0.0041814847
0.0041822072
0.0041829576
0.0041836183
0.0041843922
0.0041850373
0.0041859134
0.0041864787
0.0041874316
0.0041879035
0.0041891205
0.0039551878
0.003957033
0.003957542
0.0039587732
0.0039594663
0.0039603805
0.0039610571
0.0039617928
0.0039623967
0.003962987
0.0039635079
0.0039640354
0.003964583
0.0039651784
0.0039658145
0.003966421
0.0039669712
0.0039674611
0.0039679009
0.0039682912
0.0039686438
0.0039689675
0.0039692817
0.0039695981
0.0039699381
0.0039703049
0.0039707056
0.0039711321
0.0039715614
0.0039719551
0.0039723042
0.0039726025
0.0039728634
0.0039731168
0.003973397
0.0039737112
0.0039740559
0.0039744155
0.0039747563
0.0039750514
0.0039752974
0.0039755272
0.0039757742
0.0039760391
0.0039763346
0.0039766516
0.0039770043
0.0039773388
0.0039776523
0.0039779629
0.0039782971
0.0039786739
0.0039790917
0.0039795367
0.0039799641
0.0039803722
0.0039807388
0.0039810652
0.0039813463
0.0039815895
0.0039818123
0.0039820265
0.003982268
0.0039825476
0.0039829009
0.0039833278
0.0039838367
0.0039844333
0.0039850892
0.0039857272
0.0039863141
0.0039868268
0.0039873321
0.0039877826
0.0039883616
0.0039888626
0.0039896429
0.0039901682
0.0039911649
0.0039916574
0.0039929407
0.0037772859
0.0037790643
0.0037795647
0.0037807438
0.0037814231
0.0037823005
0.0037829846
0.0037837136
0.0037843623
0.0037849741
0.0037855123
0.0037859985
0.0037864511
0.0037869087
0.0037873958
0.0037879292
0.0037885034
0.003789064
0.0037895861
0.0037900561
0.0037904803
0.0037908638
0.0037912034
0.0037915157
0.0037918138
0.0037921146
0.0037924381
0.0037927948
0.0037931903
0.0037936086
0.0037940004
0.0037943497
0.0037946511
0.003794913
0.0037951601
0.0037954197
0.0037957146
0.0037960485
0.0037964102
0.0037967572
0.0037970544
0.0037973019
0.0037975157
0.0037977309
0.0037979756
0.003798257
0.0037986024
0.0037990044
0.0037994254
0.003799854
0.0038002886
0.0038007299
0.0038011295
0.0038014956
0.0038018188
0.0038021114
0.0038023696
0.00380261
0.0038028383
0.0038030774
0.0038033457
0.003803663
0.0038040424
0.0038044829
0.0038049985
0.0038055785
0.0038061948
0.0038067479
0.0038072322
0.0038076342
0.0038080193
0.0038083731
0.0038088012
0.0038092143
0.0038097862
0.0038102478
0.0038109886
0.0038114786
0.0038124477
0.0038129035
0.0038141776
0.003616398
0.0036180643
0.0036185519
0.0036196482
0.0036202961
0.0036211252
0.0036217953
0.0036225232
0.0036231853
0.0036238321
0.0036244179
0.0036249516
0.0036254188
0.0036258356
0.0036262261
0.0036266201
0.0036270372
0.003627494
0.0036279808
0.003628488
0.0036289656
0.003629403
0.0036297959
0.0036301536
0.0036304694
0.0036307585
0.0036310381
0.003631324
0.0036316387
0.0036319911
0.0036323759
0.003632759
0.0036331066
0.0036334169
0.0036336868
0.0036339335
0.0036341788
0.0036344451
0.0036347511
0.0036350979
0.0036354403
0.0036357457
0.0036360162
0.0036362622
0.0036365083
0.0036367598
0.0036370369
0.0036373619
0.0036377397
0.003638134
0.0036385101
0.0036388417
0.0036391322
0.0036393875
0.0036396195
0.0036398415
0.0036400625
0.0036403052
0.0036405741
0.003640897
0.003641266
0.0036416941
0.0036421825
0.0036427144
0.0036432287
0.0036436809
0.0036440674
0.0036444006
0.003644719
0.0036450524
0.0036454494
0.0036458752
0.0036464083
0.003646895
0.0036475425
0.0036480263
0.003648769
0.0036492408
0.0036501569
0.0036505744
0.0036517913
0.0034713526
0.003472874
0.0034733491
0.003474346
0.0034749597
0.0034757218
0.0034763414
0.0034770108
0.0034776149
0.0034782466
0.003478849
0.0034794116
0.0034799192
0.0034803765
0.0034807761
0.0034811312
0.0034814634
0.0034817919
0.003482142
0.0034825236
0.0034829351
0.003483373
0.0034837965
0.003484187
0.0034845378
0.0034848579
0.0034851407
0.0034853991
0.0034856505
0.0034859169
0.0034862181
0.0034865589
0.0034869237
0.0034872661
0.0034875763
0.0034878581
0.003488109
0.0034883434
0.0034885854
0.0034888656
0.0034891976
0.003489543
0.003489869
0.0034901712
0.0034904568
0.0034907224
0.0034909621
0.0034911855
0.003491417
0.0034916547
0.0034918873
0.0034921069
0.0034923236
0.0034925366
0.0034927643
0.0034930061
0.0034932775
0.0034935841
0.0034939296
0.003494326
0.0034947637
0.0034952193
0.0034956294
0.00349599
0.0034962946
0.0034965656
0.0034968407
0.0034971407
0.0034975078
0.0034979072
0.003498387
0.0034988369
0.0034993925
0.0034998455
0.0035004647
0.0035009069
0.0035016157
0.0035020516
0.0035029074
0.0035032921
0.0035044294
0.0033411534
0.0033425097
0.0033429558
0.0033438438
0.0033444087
0.0033450873
0.0033456288
0.0033461873
0.0033466806
0.0033471872
0.0033476876
0.0033482091
0.0033487227
0.0033492014
0.0033496316
0.0033500163
0.0033503526
0.0033506532
0.0033509299
0.0033512029
0.0033514949
0.0033518154
0.0033521674
0.0033525433
0.0033529089
0.0033532453
0.0033535468
0.0033538157
0.0033540534
0.0033542707
0.0033544906
0.0033547333
0.0033550101
0.0033553179
0.0033556399
0.0033559416
0.0033562162
0.0033564605
0.0033566764
0.0033568874
0.0033571262
0.0033574092
0.0033577288
0.0033580553
0.0033583633
0.0033586435
0.0033588885
0.0033590869
0.0033592541
0.003359415
0.0033595848
0.0033597778
0.0033599951
0.0033602424
0.0033605143
0.0033608105
0.0033611378
0.0033614972
0.0033618841
0.0033622602
0.0033625966
0.0033628828
0.0033631323
0.0033633593
0.0033636002
0.0033638686
0.0033641937
0.0033645398
0.0033649323
0.0033652955
0.0033657162
0.0033660654
0.0033665258
0.003366875
0.0033674104
0.0033677776
0.0033684194
0.0033687924
0.0033695683
0.0033699014
0.0033709319
0.0032259242
0.003227103
0.0032275041
0.0032282708
0.0032287728
0.0032293586
0.0032298261
0.0032302954
0.0032307018
0.0032310936
0.0032314638
0.0032318424
0.0032322369
0.0032326554
0.0032330813
0.0032334789
0.003233836
0.0032341533
0.0032344314
0.0032346791
0.0032349029
0.0032351232
0.0032353628
0.0032356293
0.0032359235
0.003236237
0.0032365419
0.0032368202
0.0032370678
0.0032372844
0.003237475
0.0032376526
0.0032378335
0.0032380348
0.0032382625
0.0032385122
0.0032387732
0.0032390221
0.0032392423
0.0032394263
0.0032395921
0.0032397687
0.003239968
0.0032401967
0.0032404415
0.0032406952
0.0032409438
0.0032411662
0.0032413615
0.0032415457
0.0032417399
0.0032419587
0.0032422025
0.0032424734
0.0032427698
0.003243089
0.0032434075
0.0032437036
0.0032439698
0.0032441949
0.0032443945
0.0032445816
0.0032447851
0.003245017
0.0032452893
0.0032455689
0.0032458771
0.0032461577
0.0032464785
0.0032467481
0.0032470998
0.0032473721
0.0032477758
0.0032480602
0.0032485349
0.003248834
0.0032493914
0.0032496931
0.0032503687
0.003250621
0.003251521
0.003125247
0.0031262592
0.0031266184
0.0031272696
0.003127709
0.0031282157
0.0031286239
0.0031290449
0.0031294076
0.0031297511
0.0031300553
0.0031303402
0.0031306188
0.0031309063
0.0031312195
0.0031315565
0.0031319089
0.0031322404
0.0031325387
0.0031328015
0.0031330278
0.0031332253
0.0031334046
0.0031335843
0.0031337832
0.0031340076
0.0031342588
0.003134528
0.0031347878
0.0031350242
0.0031352351
0.0031354192
0.0031355827
0.0031357328
0.0031358843
0.0031360505
0.00313624
0.0031364505
0.0031366683
0.0031368645
0.0031370269
0.0031371647
0.0031372991
0.0031374397
0.0031376007
0.0031377887
0.00313801
0.0031382497
0.0031384847
0.0031387128
0.0031389441
0.0031391823
0.0031394273
0.0031396617
0.0031398855
0.0031400993
0.0031402965
0.0031404765
0.0031406424
0.0031408064
0.0031409828
0.0031411814
0.0031414074
0.0031416371
0.0031418846
0.0031421115
0.003142369
0.0031425935
0.0031428818
0.0031431166
0.0031434493
0.003143692
0.0031440691
0.0031443101
0.0031447336
0.0031449718
0.0031454565
0.0031456901
0.0031462714
0.0031464604
0.0031472496
0.0030319292
0.0030327632
0.0030331349
0.0030336695
0.0030340691
0.0030345118
0.0030348783
0.0030352611
0.0030356023
0.0030359344
0.0030362317
0.0030364984
0.0030367348
0.0030369529
0.0030371662
0.00303739
0.0030376369
0.0030379065
0.0030381904
0.0030384627
0.0030387053
0.0030389166
0.003039094
0.0030392485
0.003039392
0.0030395375
0.0030397003
0.0030398861
0.0030400939
0.0030403173
0.0030405413
0.0030407477
0.0030409346
0.0030411043
0.0030412568
0.0030414014
0.0030415452
0.0030417054
0.0030418866
0.0030420814
0.0030422606
0.003042419
0.0030425522
0.0030426721
0.003042789
0.0030429155
0.0030430641
0.003043245
0.0030434563
0.0030436812
0.0030439018
0.0030441076
0.0030442927
0.0030444586
0.0030446084
0.0030447466
0.0030448815
0.0030450224
0.0030451777
0.0030453454
0.0030455353
0.0030457262
0.0030459363
0.0030461318
0.0030463561
0.0030465579
0.0030468082
0.0030470225
0.0030473047
0.003047529
0.0030478399
0.0030480649
0.0030484047
0.0030486292
0.0030490078
0.0030492322
0.0030496646
0.0030498905
0.0030503987
0.0030505811
0.0030512606
0.0029473248
0.002947854
0.0029481049
0.0029484337
0.0029487232
0.0029489647
0.0029492379
0.0029494628
0.0029497133
0.00294993
0.0029501557
0.0029503581
0.0029505375
0.0029506869
0.0029508131
0.002950926
0.0029510367
0.002951162
0.0029513089
0.0029514778
0.0029516629
0.0029518357
0.0029519841
0.002952108
0.0029522047
0.0029522852
0.0029523585
0.0029524312
0.0029525146
0.0029526109
0.0029527234
0.0029528496
0.002952986
0.0029531241
0.0029532544
0.0029533707
0.0029534736
0.0029535703
0.0029536722
0.002953789
0.0029539201
0.0029540533
0.0029541726
0.0029542755
0.0029543605
0.0029544293
0.0029544906
0.0029545544
0.0029546289
0.0029547127
0.0029548116
0.0029549035
0.0029550074
0.0029550871
0.0029551834
0.00295525
0.0029553469
0.002955413
0.0029555219
0.0029555926
0.0029557142
0.0029557847
0.0029559159
0.0029559825
0.0029561262
0.0029561884
0.0029563462
0.0029563985
0.0029565674
0.0029566024
0.0029567828
0.0029567973
0.0029570003
0.0029570031
0.0029572347
0.0029572351
0.0029574735
0.0029574814
0.0029577603
0.0029577394
0.0029580461
0.0029046655
0.0029049216
0.0029050418
0.0029052137
0.00290541
0.0029055257
0.0029056611
0.0029057643
0.002905883
0.0029059902
0.0029061089
0.0029062246
0.0029063319
0.0029064263
0.0029065054
0.0029065666
0.0029066131
0.0029066488
0.0029066861
0.0029067375
0.0029068114
0.0029069058
0.0029070058
0.0029070943
0.0029071658
0.0029072226
0.0029072672
0.0029073
0.0029073266
0.0029073502
0.0029073767
0.0029074084
0.0029074478
0.0029074929
0.0029075433
0.0029075926
0.0029076373
0.0029076751
0.0029077103
0.0029077489
0.0029078002
0.0029078632
0.0029079341
0.0029080016
0.0029080594
0.0029081076
0.0029081438
0.0029081722
0.002908198
0.0029082266
0.0029082603
0.0029082992
0.0029083414
0.0029083854
0.0029084296
0.0029084751
0.002908521
0.0029085707
0.0029086216
0.0029086783
0.0029087347
0.0029087975
0.002908857
0.002908924
0.0029089849
0.0029090559
0.0029091168
0.0029091914
0.0029092514
0.0029093298
0.002909386
0.0029094703
0.0029095237
0.0029096115
0.0029096704
0.0029097343
0.0029098402
0.0029098416
0.0029099731
0.0029099415
0.0029100815
0.0028804434
0.0028811256
0.0028817272
0.0028817106
0.0028822051
0.0028822248
0.0028826114
0.0028826695
0.0028829703
0.0028830113
0.002883268
0.0028833135
0.0028835671
0.002883641
0.0028838986
0.0028839937
0.0028842077
0.0028842674
0.0028844128
0.0028844336
0.0028845465
0.0028845852
0.0028847281
0.0028848223
0.0028849981
0.0028851475
0.0028853335
0.0028854733
0.0028856333
0.0028857589
0.0028859008
0.0028860246
0.0028861606
0.0028862889
0.0028864223
0.0028865492
0.0028866792
0.002886803
0.0028869257
0.0028870448
0.0028871682
0.0028872998
0.0028874423
0.0028875948
0.0028877497
0.0028879042
0.0028880503
0.0028881939
0.0028883304
0.0028884708
0.0028886083
0.0028887549
0.0028888985
0.002889053
0.0028892016
0.0028893626
0.0028895156
0.002889684
0.0028898424
0.0028900196
0.0028901838
0.0028903703
0.0028905392
0.0028907344
0.002890908
0.0028911148
0.0028912975
0.002891521
0.0028917157
0.0028919593
0.0028921672
0.0028924374
0.002892662
0.0028929654
0.0028932059
0.0028935556
0.0028938071
0.002894204
0.002894504
0.0028949493
0.0028954825
0.0026864404
0.0026864333
0.0026873956
0.002687922
0.0026886087
0.0026892414
0.002689846
0.002690408
0.0026909418
0.0026914398
0.002691909
0.0026923471
0.0026927581
0.002693151
0.002693518
0.0026938627
0.0026941903
0.0026944986
0.0026947851
0.0026950529
0.0026953051
0.0026955417
0.002695764
0.0026959738
0.0026961722
0.0026963288
0.002696479
0.0026966113
0.0026967395
0.0026968526
0.0026969607
0.0026970492
0.0026971299
0.0026971911
0.0026972503
0.0026972987
0.002697344
0.0026973844
0.0026974217
0.0026974479
0.0026974602
0.0026974552
0.0026974447
0.0026974413
0.0026974373
0.0026974282
0.0026974131
0.0026973913
0.0026973626
0.002697326
0.0026972815
0.0026972283
0.0026971665
0.0026970953
0.0026970145
0.0026969232
0.0026968208
0.0026967063
0.0026965789
0.0026964375
0.0026962814
0.0026961091
0.0026959202
0.0026957132
0.0026954885
0.0026952429
0.0026949765
0.0026946884
0.002694376
0.0026940367
0.0026936669
0.0026932659
0.0026928338
0.0026923585
0.0026918462
0.0026912879
0.0026906415
0.0026900806
0.0026893024
0.002688669
0.0026880006
0.0026480982
0.0026452232
0.0026438516
0.0026419593
0.002640517
0.0026390952
0.0026376752
0.0026364624
0.0026352317
0.0026341413
0.002633044
0.00263205
0.0026310654
0.0026301434
0.0026292336
0.0026283842
0.0026275499
0.0026267673
0.0026260186
0.0026253056
0.0026246296
0.0026239769
0.0026233569
0.0026227557
0.002622181
0.0026216258
0.0026210907
0.0026205771
0.0026200758
0.0026195962
0.0026191259
0.0026186772
0.0026182358
0.0026178144
0.0026173961
0.002616994
0.002616595
0.0026162086
0.0026158266
0.0026154547
0.002615088
0.002614729
0.0026143762
0.0026140284
0.0026136879
0.0026133513
0.0026130218
0.0026126984
0.0026123795
0.0026120691
0.0026117603
0.0026114625
0.0026111633
0.002610878
0.0026105887
0.0026103164
0.0026100381
0.00260978
0.0026095144
0.0026092714
0.0026090193
0.0026087903
0.0026085489
0.0026083283
0.0026080893
0.0026078677
0.0026076185
0.0026073836
0.0026071104
0.0026068536
0.0026065511
0.002606279
0.0026059305
0.002605616
0.0026052026
0.0026048437
0.0026043279
0.002603901
0.0026030796
0.0026028736
0.0026011101
0.0039781179
0.0039771634
0.0039761282
0.0039753006
0.0039743291
0.0039734141
0.0039725151
0.0039716545
0.0039708745
0.0039701302
0.0039694255
0.0039687654
0.0039681534
0.0039675702
0.0039670213
0.0039664992
0.0039659892
0.0039654954
0.0039650275
0.0039645882
0.0039641769
0.0039637904
0.0039634389
0.003963119
0.0039628293
0.0039625676
0.0039623271
0.0039621083
0.0039619035
0.0039617129
0.0039615361
0.0039613723
0.0039612211
0.003961082
0.0039609547
0.0039608389
0.0039607345
0.0039606411
0.0039605588
0.0039604875
0.0039604272
0.0039603773
0.0039603378
0.0039603073
0.0039602863
0.0039602728
0.0039602674
0.0039602704
0.0039602823
0.0039603032
0.0039603338
0.0039603743
0.0039604256
0.0039604878
0.0039605619
0.0039606484
0.003960748
0.003960861
0.0039609882
0.0039611296
0.0039612851
0.0039614547
0.0039616381
0.0039618355
0.0039620489
0.0039622788
0.0039625277
0.0039627997
0.0039630989
0.0039634241
0.0039637786
0.0039641637
0.003964583
0.0039650416
0.0039655309
0.003966069
0.0039666363
0.0039672668
0.0039678548
0.0039685198
0.0039695278
0.0025670123
0.0025699411
0.002570074
0.0025724936
0.0025727406
0.0025746423
0.0025752183
0.0025767204
0.0025772559
0.0025785326
0.0025790315
0.0025801362
0.0025805588
0.0025815558
0.0025819358
0.0025828336
0.0025831911
0.0025840083
0.0025843111
0.0025850223
0.0025852748
0.0025858928
0.0025861014
0.0025866048
0.0025867795
0.0025871778
0.002587329
0.0025876501
0.0025877797
0.0025880519
0.0025881603
0.002588389
0.0025884784
0.0025886674
0.002588739
0.0025888913
0.002588946
0.0025890635
0.0025891019
0.0025891855
0.0025892084
0.0025892588
0.0025892661
0.0025892812
0.0025892799
0.0025892732
0.002589256
0.0025892272
0.002589187
0.0025891344
0.0025890691
0.0025889902
0.0025888971
0.0025887888
0.0025886646
0.002588523
0.0025883635
0.0025881842
0.0025879848
0.0025877637
0.0025875212
0.0025872559
0.0025869691
0.002586661
0.0025863325
0.0025859829
0.0025856129
0.0025852208
0.0025848079
0.0025843729
0.0025839072
0.0025834058
0.0025828775
0.0025823229
0.0025817285
0.0025811126
0.0025804469
0.0025797788
0.0025790865
0.002578179
0.0025774672
0.025508499
0.025514093
0.025518475
0.02552332
0.02552792
0.025532566
0.025537139
0.025541684
0.025546184
0.025550644
0.02555506
0.025559433
0.025563761
0.025568043
0.025572279
0.025576467
0.025580607
0.025584697
0.025588736
0.025592724
0.025596659
0.025600541
0.025604368
0.025608139
0.025611852
0.025615508
0.025619104
0.025622639
0.025626112
0.025629522
0.025632867
0.025636147
0.025639359
0.025642503
0.025645578
0.025648583
0.025651516
0.025654377
0.025657165
0.025659879
0.02566252
0.025665087
0.025667579
0.025669996
0.025672339
0.025674608
0.025676802
0.025678922
0.025680969
0.025682942
0.025684842
0.02568667
0.025688425
0.025690109
0.025691722
0.025693264
0.025694735
0.025696138
0.025697471
0.025698736
0.025699932
0.025701061
0.025702123
0.025703119
0.025704048
0.025704911
0.02570571
0.025706443
0.025707113
0.025707717
0.025708258
0.025708736
0.02570915
0.025709505
0.0257098
0.025710042
0.025710227
0.025710367
0.025710453
0.025710491
0.025710475
0.023756226
0.023761116
0.023765009
0.023769225
0.023773251
0.023777295
0.023781271
0.023785214
0.02378911
0.023792963
0.023796772
0.023800538
0.023804258
0.023807934
0.023811564
0.023815148
0.023818686
0.023822176
0.023825619
0.023829014
0.023832361
0.023835659
0.023838907
0.023842105
0.023845252
0.023848348
0.023851393
0.023854385
0.023857325
0.023860212
0.023863046
0.023865825
0.02386855
0.02387122
0.023873835
0.023876394
0.023878898
0.023881345
0.023883736
0.02388607
0.023888347
0.023890567
0.023892729
0.023894834
0.02389688
0.023898868
0.023900798
0.023902669
0.023904482
0.023906236
0.023907931
0.023909567
0.023911144
0.023912663
0.023914122
0.023915523
0.023916865
0.023918148
0.023919373
0.023920539
0.023921647
0.023922697
0.02392369
0.023924624
0.023925501
0.023926322
0.023927085
0.023927791
0.02392844
0.023929033
0.02392957
0.023930049
0.023930473
0.023930841
0.023931154
0.02393142
0.023931624
0.023931781
0.023931887
0.023931941
0.023931943
0.02212047
0.022124754
0.022128133
0.022131806
0.022135295
0.022138798
0.022142235
0.022145638
0.022148996
0.022152313
0.022155587
0.022158819
0.022162009
0.022165157
0.022168264
0.022171328
0.022174349
0.022177329
0.022180265
0.022183158
0.022186009
0.022188815
0.022191578
0.022194297
0.022196972
0.022199602
0.022202187
0.022204727
0.022207221
0.022209669
0.022212072
0.022214428
0.022216737
0.022218999
0.022221214
0.022223382
0.022225502
0.022227574
0.022229598
0.022231573
0.022233501
0.022235379
0.022237209
0.02223899
0.022240722
0.022242405
0.022244038
0.022245622
0.022247157
0.022248643
0.022250079
0.022251465
0.022252803
0.02225409
0.022255329
0.022256518
0.022257659
0.02225875
0.022259792
0.022260785
0.022261729
0.022262625
0.022263473
0.022264272
0.022265023
0.022265726
0.022266381
0.022266988
0.022267547
0.022268059
0.022268522
0.022268937
0.022269304
0.022269623
0.022269896
0.022270127
0.022270302
0.022270438
0.022270531
0.022270577
0.022270579
0.020593759
0.020597537
0.020600492
0.020603707
0.020606751
0.020609802
0.020612792
0.020615746
0.020618656
0.020621526
0.020624356
0.020627147
0.020629897
0.020632609
0.020635281
0.020637915
0.02064051
0.020643067
0.020645585
0.020648064
0.020650505
0.020652907
0.02065527
0.020657594
0.02065988
0.020662126
0.020664334
0.020666502
0.02066863
0.020670719
0.020672769
0.020674778
0.020676747
0.020678677
0.020680566
0.020682414
0.020684222
0.020685989
0.020687716
0.020689401
0.020691046
0.020692649
0.020694211
0.020695732
0.020697211
0.020698649
0.020700046
0.020701401
0.020702714
0.020703986
0.020705216
0.020706404
0.020707551
0.020708657
0.02070972
0.020710742
0.020711723
0.020712662
0.02071356
0.020714417
0.020715232
0.020716006
0.020716739
0.020717431
0.020718083
0.020718693
0.020719262
0.020719791
0.020720278
0.020720724
0.020721129
0.020721493
0.020721815
0.020722095
0.020722335
0.020722536
0.020722692
0.020722812
0.020722894
0.020722936
0.020722938
0.019169063
0.019172389
0.019174966
0.019177775
0.019180425
0.019183077
0.01918567
0.019188229
0.019190746
0.019193225
0.019195665
0.019198068
0.019200434
0.019202764
0.019205058
0.019207316
0.01920954
0.019211728
0.019213881
0.019216
0.019218085
0.019220135
0.019222151
0.019224133
0.01922608
0.019227994
0.019229873
0.019231719
0.01923353
0.019235308
0.019237051
0.01923876
0.019240434
0.019242075
0.019243681
0.019245252
0.01924679
0.019248292
0.019249761
0.019251194
0.019252593
0.019253957
0.019255287
0.019256581
0.019257841
0.019259066
0.019260256
0.019261411
0.019262532
0.019263617
0.019264667
0.019265683
0.019266664
0.019267609
0.01926852
0.019269396
0.019270237
0.019271044
0.019271815
0.019272552
0.019273254
0.019273922
0.019274554
0.019275152
0.019275716
0.019276245
0.019276739
0.019277199
0.019277623
0.019278013
0.019278367
0.019278686
0.019278969
0.019279215
0.019279428
0.019279604
0.019279743
0.01927985
0.019279924
0.019279961
0.019279963
0.017838955
0.01784189
0.017844141
0.017846601
0.017848912
0.017851223
0.017853478
0.017855699
0.01785788
0.017860025
0.017862134
0.017864208
0.017866248
0.017868254
0.017870227
0.017872167
0.017874076
0.017875952
0.017877798
0.017879612
0.017881396
0.01788315
0.017884873
0.017886566
0.017888229
0.017889862
0.017891465
0.017893039
0.017894583
0.017896098
0.017897584
0.01789904
0.017900466
0.017901864
0.017903232
0.01790457
0.01790588
0.01790716
0.017908411
0.017909632
0.017910824
0.017911987
0.01791312
0.017914225
0.017915299
0.017916345
0.017917361
0.017918348
0.017919306
0.017920234
0.017921133
0.017922002
0.017922843
0.017923653
0.017924435
0.017925187
0.017925911
0.017926604
0.017927269
0.017927904
0.01792851
0.017929087
0.017929635
0.017930153
0.017930642
0.017931101
0.017931531
0.017931932
0.017932303
0.017932644
0.017932954
0.017933234
0.017933483
0.017933701
0.01793389
0.017934043
0.017934167
0.017934262
0.017934328
0.017934361
0.017934363
0.016597365
0.016599958
0.016601925
0.016604079
0.016606097
0.01660811
0.016610071
0.016611999
0.016613889
0.016615745
0.016617568
0.016619357
0.016621115
0.016622842
0.016624538
0.016626204
0.016627841
0.01662945
0.01663103
0.016632583
0.016634108
0.016635606
0.016637077
0.016638522
0.01663994
0.016641333
0.016642699
0.01664404
0.016645355
0.016646644
0.016647908
0.016649147
0.016650361
0.01665155
0.016652713
0.016653852
0.016654966
0.016656055
0.016657119
0.016658158
0.016659172
0.016660162
0.016661127
0.016662068
0.016662984
0.016663875
0.016664741
0.016665583
0.016666401
0.016667193
0.016667961
0.016668705
0.016669424
0.016670119
0.016670788
0.016671434
0.016672055
0.016672651
0.016673222
0.016673769
0.016674292
0.01667479
0.016675263
0.016675711
0.016676135
0.016676534
0.016676907
0.016677256
0.016677579
0.016677877
0.016678149
0.016678394
0.016678612
0.016678804
0.01667897
0.016679102
0.016679213
0.016679297
0.016679355
0.016679385
0.016679386
0.015438017
0.015440311
0.01544203
0.015443919
0.015445682
0.015447437
0.015449144
0.015450819
0.015452458
0.015454066
0.015455641
0.015457187
0.015458702
0.015460189
0.015461648
0.01546308
0.015464485
0.015465864
0.015467218
0.015468547
0.015469851
0.015471132
0.015472388
0.015473622
0.015474832
0.015476019
0.015477184
0.015478326
0.015479446
0.015480544
0.01548162
0.015482675
0.015483707
0.015484719
0.015485709
0.015486678
0.015487625
0.015488552
0.015489458