/*--------------------------------*- C++ -*----------------------------------*\
| =========                 |                                                 |
| \\      /  F ield         | OpenFOAM: The Open Source CFD Toolbox           |
|  \\    /   O peration     | Version:  v2006                                 |
|   \\  /    A nd           | Website:  www.openfoam.com                      |
|    \\/     M anipulation  |                                                 |
\*---------------------------------------------------------------------------*/
FoamFile
{
    version     2.0;
    format      ascii;
    class       volScalarField;
    location    "6000";
    object      Cx;
}
// * * * * * * * * * * * * * * * * * * * * * * * * * * * * * * * * * * * * * //

dimensions      [0 1 0 0 0 0 0];


internalField   nonuniform List<scalar> 
102907
(
-4.0717662
-4.0716219
-4.0714913
-4.0713723
-4.0712633
-4.0711629
-4.0710698
-4.0709833
-4.0709024
-4.0708266
-4.0707552
-4.0706879
-4.0706241
-4.0705636
-4.0705059
-4.0704509
-4.0703982
-4.0703478
-4.0702993
-4.0702527
-4.0702077
-4.0701642
-4.0701222
-4.0700815
-4.0700419
-4.0700035
-4.0699661
-4.0699296
-4.069894
-4.0698592
-4.0698252
-4.0697918
-4.0697591
-4.069727
-4.0696955
-4.0696644
-4.0696338
-4.0696036
-4.0695738
-4.0695443
-4.0695152
-4.0694864
-4.0694578
-4.0694294
-4.0694012
-4.0693733
-4.0693454
-4.0693177
-4.06929
-4.0692625
-4.0692349
-4.0692074
-4.0691799
-4.0691524
-4.0691248
-4.0690971
-4.0690694
-4.0690415
-4.0690134
-4.0689852
-4.0689568
-4.0689282
-4.0688994
-4.0688703
-4.0688409
-4.0688112
-4.0687813
-4.0687509
-4.0687202
-4.0686892
-4.0686578
-4.068626
-4.0685939
-4.0685614
-4.0685286
-4.0684956
-4.0684624
-4.0684292
-4.0683961
-4.0683634
-4.0683314
-4.2145265
-4.2142201
-4.2139386
-4.2136786
-4.213437
-4.2132116
-4.2130004
-4.2128017
-4.2126141
-4.2124365
-4.2122677
-4.2121069
-4.2119534
-4.2118063
-4.2116652
-4.2115295
-4.2113986
-4.2112723
-4.2111501
-4.2110316
-4.2109166
-4.2108048
-4.2106959
-4.2105897
-4.2104859
-4.2103844
-4.210285
-4.2101875
-4.2100918
-4.2099977
-4.209905
-4.2098137
-4.2097236
-4.2096345
-4.2095465
-4.2094593
-4.2093729
-4.2092872
-4.209202
-4.2091173
-4.209033
-4.208949
-4.2088652
-4.2087815
-4.2086978
-4.2086141
-4.2085303
-4.2084462
-4.2083618
-4.208277
-4.2081916
-4.2081057
-4.2080191
-4.2079316
-4.2078432
-4.2077539
-4.2076633
-4.2075715
-4.2074783
-4.2073836
-4.2072871
-4.2071888
-4.2070885
-4.206986
-4.2068811
-4.2067735
-4.2066631
-4.2065496
-4.2064326
-4.2063119
-4.2061871
-4.2060579
-4.2059236
-4.205784
-4.2056383
-4.205486
-4.2053263
-4.2051582
-4.2049809
-4.2047929
-4.204593
-4.3572962
-4.3568444
-4.3564275
-4.3560407
-4.3556802
-4.3553427
-4.3550254
-4.354726
-4.3544426
-4.3541736
-4.3539173
-4.3536727
-4.3534385
-4.3532138
-4.3529977
-4.3527895
-4.3525884
-4.352394
-4.3522055
-4.3520225
-4.3518446
-4.3516714
-4.3515024
-4.3513374
-4.3511759
-4.3510178
-4.3508627
-4.3507104
-4.3505607
-4.3504132
-4.3502679
-4.3501245
-4.3499828
-4.3498427
-4.3497039
-4.3495663
-4.3494298
-4.3492942
-4.3491593
-4.349025
-4.3488911
-4.3487576
-4.3486242
-4.3484909
-4.3483574
-4.3482237
-4.3480895
-4.3479548
-4.3478195
-4.3476832
-4.347546
-4.3474076
-4.3472679
-4.3471267
-4.3469838
-4.346839
-4.3466921
-4.3465429
-4.3463912
-4.3462367
-4.3460792
-4.3459184
-4.3457539
-4.3455855
-4.3454127
-4.3452353
-4.3450527
-4.3448644
-4.34467
-4.3444688
-4.3442602
-4.3440434
-4.3438175
-4.3435816
-4.3433345
-4.343075
-4.3428016
-4.3425124
-4.3422054
-4.3418781
-4.3415273
-4.5000753
-4.4994948
-4.498958
-4.4984592
-4.4979933
-4.4975565
-4.4971453
-4.4967568
-4.4963886
-4.4960386
-4.4957049
-4.4953859
-4.4950803
-4.4947868
-4.4945043
-4.4942319
-4.4939686
-4.4937137
-4.4934665
-4.4932264
-4.4929928
-4.4927651
-4.4925429
-4.4923258
-4.4921132
-4.4919049
-4.4917005
-4.4914996
-4.491302
-4.4911073
-4.4909153
-4.4907258
-4.4905384
-4.4903529
-4.4901692
-4.489987
-4.4898061
-4.4896263
-4.4894473
-4.4892691
-4.4890913
-4.4889139
-4.4887366
-4.4885593
-4.4883817
-4.4882036
-4.488025
-4.4878455
-4.487665
-4.4874832
-4.4873001
-4.4871152
-4.4869285
-4.4867397
-4.4865485
-4.4863546
-4.4861578
-4.4859579
-4.4857544
-4.485547
-4.4853354
-4.4851192
-4.4848979
-4.4846712
-4.4844384
-4.484199
-4.4839525
-4.4836981
-4.4834351
-4.4831626
-4.4828797
-4.4825853
-4.4822782
-4.481957
-4.4816201
-4.4812657
-4.4808915
-4.4804949
-4.480073
-4.4796221
-4.4791376
-4.6428638
-4.6421714
-4.6415304
-4.6409341
-4.6403767
-4.6398535
-4.6393606
-4.6388946
-4.6384526
-4.6380321
-4.637631
-4.6372474
-4.6368796
-4.6365262
-4.6361859
-4.6358575
-4.63554
-4.6352326
-4.6349343
-4.6346444
-4.6343622
-4.6340872
-4.6338186
-4.633556
-4.633299
-4.6330469
-4.6327995
-4.6325564
-4.632317
-4.6320812
-4.6318486
-4.6316189
-4.6313917
-4.6311668
-4.630944
-4.6307229
-4.6305033
-4.630285
-4.6300677
-4.6298513
-4.6296353
-4.6294197
-4.6292042
-4.6289886
-4.6287726
-4.628556
-4.6283386
-4.6281201
-4.6279003
-4.627679
-4.6274558
-4.6272306
-4.6270029
-4.6267727
-4.6265394
-4.6263029
-4.6260628
-4.6258186
-4.62557
-4.6253167
-4.625058
-4.6247936
-4.624523
-4.6242454
-4.6239604
-4.6236672
-4.6233651
-4.6230531
-4.6227304
-4.6223959
-4.6220483
-4.6216865
-4.6213087
-4.6209132
-4.6204981
-4.6200609
-4.619599
-4.6191089
-4.6185869
-4.6180282
-4.6174272
-4.7856617
-4.7848743
-4.7841449
-4.7834658
-4.7828307
-4.7822342
-4.7816719
-4.78114
-4.7806352
-4.7801549
-4.7796964
-4.7792578
-4.7788371
-4.7784327
-4.7780432
-4.7776673
-4.7773037
-4.7769515
-4.7766097
-4.7762775
-4.775954
-4.7756386
-4.7753306
-4.7750294
-4.7747344
-4.7744452
-4.7741612
-4.773882
-4.7736073
-4.7733364
-4.7730693
-4.7728053
-4.7725443
-4.7722859
-4.7720297
-4.7717756
-4.7715231
-4.7712721
-4.7710222
-4.7707732
-4.7705248
-4.7702767
-4.7700287
-4.7697805
-4.7695318
-4.7692825
-4.7690321
-4.7687805
-4.7685273
-4.7682723
-4.7680152
-4.7677556
-4.7674933
-4.7672278
-4.7669589
-4.7666861
-4.766409
-4.7661273
-4.7658405
-4.765548
-4.7652494
-4.7649441
-4.7646315
-4.7643108
-4.7639814
-4.7636424
-4.763293
-4.7629321
-4.7625587
-4.7621714
-4.7617689
-4.7613496
-4.7609117
-4.7604531
-4.7599714
-4.7594639
-4.7589272
-4.7583575
-4.7577502
-4.7570998
-4.7563995
-4.9284689
-4.9276036
-4.9268016
-4.9260546
-4.9253556
-4.9246988
-4.9240795
-4.9234934
-4.9229371
-4.9224074
-4.9219018
-4.9214179
-4.9209537
-4.9205074
-4.9200773
-4.9196622
-4.9192607
-4.9188716
-4.9184939
-4.9181268
-4.9177693
-4.9174206
-4.9170801
-4.916747
-4.9164209
-4.916101
-4.9157869
-4.915478
-4.915174
-4.9148743
-4.9145787
-4.9142866
-4.9139977
-4.9137116
-4.913428
-4.9131467
-4.9128671
-4.9125891
-4.9123124
-4.9120366
-4.9117614
-4.9114866
-4.9112118
-4.9109369
-4.9106614
-4.910385
-4.9101076
-4.9098287
-4.9095481
-4.9092654
-4.9089803
-4.9086925
-4.9084016
-4.9081071
-4.9078088
-4.9075062
-4.9071989
-4.9068863
-4.906568
-4.9062434
-4.9059119
-4.905573
-4.9052258
-4.9048697
-4.9045038
-4.9041272
-4.9037389
-4.9033377
-4.9029225
-4.9024919
-4.9020441
-4.9015776
-4.9010902
-4.9005795
-4.900043
-4.8994774
-4.8988792
-4.8982438
-4.8975662
-4.8968401
-4.8960579
-5.0712856
-5.0703594
-5.0695008
-5.0687007
-5.0679517
-5.0672479
-5.0665839
-5.0659555
-5.0653587
-5.0647904
-5.0642478
-5.0637284
-5.0632301
-5.0627508
-5.062289
-5.0618431
-5.0614118
-5.0609937
-5.060588
-5.0601934
-5.0598091
-5.0594344
-5.0590683
-5.0587102
-5.0583595
-5.0580155
-5.0576778
-5.0573456
-5.0570186
-5.0566963
-5.0563783
-5.0560641
-5.0557533
-5.0554455
-5.0551404
-5.0548377
-5.0545369
-5.0542378
-5.05394
-5.0536431
-5.053347
-5.0530512
-5.0527555
-5.0524595
-5.052163
-5.0518655
-5.0515668
-5.0512666
-5.0509644
-5.0506601
-5.0503531
-5.0500432
-5.0497299
-5.0494128
-5.0490915
-5.0487656
-5.0484345
-5.0480978
-5.0477548
-5.0474051
-5.0470479
-5.0466826
-5.0463084
-5.0459245
-5.0455301
-5.045124
-5.0447052
-5.0442726
-5.0438247
-5.04336
-5.0428768
-5.0423732
-5.041847
-5.0412955
-5.0407159
-5.0401048
-5.0394581
-5.0387711
-5.0380382
-5.0372525
-5.0364058
-5.2141117
-5.2131419
-5.2122426
-5.2114044
-5.2106196
-5.2098818
-5.2091857
-5.2085266
-5.2079007
-5.2073046
-5.2067353
-5.2061902
-5.2056671
-5.205164
-5.2046792
-5.204211
-5.203758
-5.203319
-5.2028928
-5.2024784
-5.2020747
-5.201681
-5.2012964
-5.2009202
-5.2005516
-5.2001902
-5.1998352
-5.1994862
-5.1991426
-5.1988038
-5.1984696
-5.1981393
-5.1978126
-5.1974892
-5.1971685
-5.1968503
-5.1965341
-5.1962197
-5.1959066
-5.1955946
-5.1952833
-5.1949723
-5.1946615
-5.1943503
-5.1940385
-5.1937258
-5.1934118
-5.1930961
-5.1927784
-5.1924584
-5.1921357
-5.1918098
-5.1914804
-5.191147
-5.1908091
-5.1904664
-5.1901182
-5.189764
-5.1894033
-5.1890355
-5.1886597
-5.1882754
-5.1878818
-5.1874779
-5.1870628
-5.1866355
-5.1861947
-5.1857393
-5.1852678
-5.1847785
-5.1842697
-5.1837393
-5.1831849
-5.1826039
-5.1819931
-5.1813489
-5.1806671
-5.1799426
-5.1791694
-5.1783403
-5.1774466
-5.3569472
-5.3559512
-5.3550273
-5.354166
-5.3533594
-5.352601
-5.3518853
-5.3512075
-5.3505638
-5.3499505
-5.3493648
-5.3488039
-5.3482656
-5.3477478
-5.3472487
-5.3467667
-5.3463004
-5.3458484
-5.3454096
-5.3449828
-5.3445671
-5.3441616
-5.3437655
-5.3433781
-5.3429985
-5.3426263
-5.3422606
-5.3419011
-5.3415472
-5.3411983
-5.3408539
-5.3405138
-5.3401773
-5.3398441
-5.3395138
-5.339186
-5.3388603
-5.3385364
-5.338214
-5.3378926
-5.337572
-5.3372517
-5.3369315
-5.336611
-5.3362899
-5.3359678
-5.3356443
-5.3353192
-5.3349921
-5.3346625
-5.33433
-5.3339944
-5.3336551
-5.3333117
-5.3329637
-5.3326107
-5.3322521
-5.3318873
-5.3315157
-5.3311368
-5.3307498
-5.3303539
-5.3299483
-5.3295322
-5.3291045
-5.3286641
-5.32821
-5.3277406
-5.3272546
-5.3267502
-5.3262257
-5.3256788
-5.3251071
-5.3245078
-5.3238776
-5.323213
-5.3225093
-5.3217614
-5.3209631
-5.3201069
-5.3191837
-5.4997921
-5.4987873
-5.4978551
-5.4969858
-5.4961716
-5.4954059
-5.4946832
-5.4939987
-5.4933484
-5.4927289
-5.4921371
-5.4915703
-5.4910263
-5.490503
-5.4899985
-5.4895113
-5.4890399
-5.4885829
-5.4881393
-5.4877078
-5.4872875
-5.4868775
-5.486477
-5.4860852
-5.4857014
-5.485325
-5.4849553
-5.4845918
-5.4842338
-5.4838811
-5.4835329
-5.4831889
-5.4828487
-5.4825118
-5.4821779
-5.4818465
-5.4815172
-5.4811898
-5.4808638
-5.4805389
-5.4802148
-5.4798911
-5.4795674
-5.4792435
-5.4789189
-5.4785934
-5.4782665
-5.4779379
-5.4776073
-5.4772742
-5.4769383
-5.4765991
-5.4762562
-5.4759092
-5.4755576
-5.4752008
-5.4748385
-5.4744699
-5.4740944
-5.4737115
-5.4733204
-5.4729203
-5.4725105
-5.4720899
-5.4716577
-5.4712126
-5.4707536
-5.4702791
-5.4697878
-5.4692779
-5.4687475
-5.4681944
-5.4676162
-5.46701
-5.4663725
-5.4657
-5.4649878
-5.4642308
-5.4634227
-5.4625557
-5.4616207
-5.6426465
-5.6416505
-5.6407262
-5.6398641
-5.6390566
-5.638297
-5.6375799
-5.6369007
-5.6362553
-5.6356404
-5.6350529
-5.6344902
-5.6339501
-5.6334304
-5.6329295
-5.6324457
-5.6319775
-5.6315237
-5.631083
-5.6306544
-5.630237
-5.6298298
-5.629432
-5.6290428
-5.6286616
-5.6282877
-5.6279205
-5.6275595
-5.627204
-5.6268536
-5.6265079
-5.6261663
-5.6258285
-5.625494
-5.6251624
-5.6248333
-5.6245065
-5.6241814
-5.6238578
-5.6235353
-5.6232136
-5.6228923
-5.6225711
-5.6222496
-5.6219275
-5.6216045
-5.6212801
-5.6209541
-5.6206261
-5.6202956
-5.6199624
-5.6196259
-5.6192858
-5.6189416
-5.6185929
-5.618239
-5.6178796
-5.617514
-5.6171417
-5.6167619
-5.616374
-5.6159773
-5.6155708
-5.6151537
-5.614725
-5.6142835
-5.6138282
-5.6133575
-5.6128701
-5.6123642
-5.611838
-5.6112891
-5.6107153
-5.6101136
-5.6094808
-5.6088131
-5.608106
-5.6073541
-5.6065514
-5.60569
-5.6047609
-5.7855104
-5.7845408
-5.7836407
-5.7828012
-5.7820146
-5.7812746
-5.7805759
-5.779914
-5.779285
-5.7786856
-5.7781129
-5.7775643
-5.7770377
-5.776531
-5.7760426
-5.7755708
-5.7751142
-5.7746716
-5.7742418
-5.7738238
-5.7734167
-5.7730196
-5.7726316
-5.7722521
-5.7718804
-5.7715158
-5.7711577
-5.7708057
-5.7704591
-5.7701175
-5.7697804
-5.7694474
-5.7691181
-5.7687921
-5.7684689
-5.7681482
-5.7678297
-5.767513
-5.7671977
-5.7668835
-5.7665701
-5.7662571
-5.7659443
-5.7656312
-5.7653175
-5.765003
-5.7646872
-5.7643698
-5.7640505
-5.7637289
-5.7634045
-5.7630771
-5.7627461
-5.7624111
-5.7620718
-5.7617275
-5.7613778
-5.7610221
-5.7606599
-5.7602904
-5.7599131
-5.7595271
-5.7591317
-5.7587259
-5.7583089
-5.7578794
-5.7574364
-5.7569785
-5.7565043
-5.7560121
-5.7555
-5.7549659
-5.7544073
-5.7538217
-5.7532056
-5.7525555
-5.7518668
-5.7511346
-5.7503525
-5.7495133
-5.7486079
-5.9283839
-5.9274583
-5.926599
-5.9257973
-5.925046
-5.9243392
-5.9236716
-5.9230392
-5.9224381
-5.9218653
-5.9213179
-5.9207935
-5.9202901
-5.9198056
-5.9193386
-5.9188875
-5.9184509
-5.9180277
-5.9176168
-5.9172171
-5.9168279
-5.9164482
-5.9160772
-5.9157144
-5.915359
-5.9150105
-5.9146682
-5.9143317
-5.9140005
-5.913674
-5.9133519
-5.9130338
-5.9127192
-5.9124077
-5.912099
-5.9117927
-5.9114886
-5.9111862
-5.9108851
-5.9105852
-5.9102861
-5.9099874
-5.9096889
-5.9093902
-5.9090909
-5.9087909
-5.9084897
-5.9081871
-5.9078826
-5.9075759
-5.9072667
-5.9069546
-5.9066391
-5.9063199
-5.9059965
-5.9056685
-5.9053353
-5.9049965
-5.9046514
-5.9042994
-5.90394
-5.9035723
-5.9031957
-5.9028092
-5.902412
-5.902003
-5.901581
-5.9011449
-5.9006931
-5.9002242
-5.8997363
-5.8992275
-5.8986953
-5.8981371
-5.89755
-5.8969302
-5.8962737
-5.8955754
-5.8948296
-5.894029
-5.8931652
-6.0712669
-6.0704031
-6.0696011
-6.0688527
-6.0681513
-6.0674912
-6.0668677
-6.0662769
-6.0657153
-6.0651801
-6.0646685
-6.0641784
-6.0637079
-6.0632551
-6.0628186
-6.0623969
-6.0619888
-6.0615932
-6.061209
-6.0608355
-6.0604716
-6.0601167
-6.05977
-6.0594309
-6.0590988
-6.0587731
-6.0584534
-6.058139
-6.0578296
-6.0575247
-6.0572239
-6.0569269
-6.0566331
-6.0563424
-6.0560543
-6.0557685
-6.0554848
-6.0552027
-6.0549219
-6.0546423
-6.0543634
-6.054085
-6.0538067
-6.0535284
-6.0532496
-6.0529701
-6.0526896
-6.0524078
-6.0521243
-6.0518389
-6.0515511
-6.0512606
-6.0509671
-6.0506701
-6.0503693
-6.0500642
-6.0497544
-6.0494393
-6.0491185
-6.0487913
-6.0484572
-6.0481154
-6.0477654
-6.0474062
-6.0470369
-6.0466568
-6.0462646
-6.0458592
-6.0454394
-6.0450035
-6.04455
-6.0440769
-6.0435821
-6.043063
-6.042517
-6.0419405
-6.0413297
-6.04068
-6.0399858
-6.0392406
-6.0384363
-6.2141595
-6.2133755
-6.2126474
-6.2119678
-6.2113307
-6.210731
-6.2101646
-6.2096276
-6.2091172
-6.2086306
-6.2081656
-6.20772
-6.2072921
-6.2068804
-6.2064834
-6.2060999
-6.2057287
-6.2053689
-6.2050196
-6.2046799
-6.204349
-6.2040263
-6.2037112
-6.2034029
-6.2031011
-6.2028051
-6.2025145
-6.2022289
-6.2019479
-6.201671
-6.2013979
-6.2011282
-6.2008616
-6.2005978
-6.2003365
-6.2000773
-6.1998199
-6.1995642
-6.1993098
-6.1990564
-6.1988037
-6.1985516
-6.1982997
-6.1980477
-6.1977954
-6.1975426
-6.1972889
-6.197034
-6.1967778
-6.1965198
-6.1962597
-6.1959973
-6.1957322
-6.195464
-6.1951925
-6.1949171
-6.1946374
-6.1943531
-6.1940636
-6.1937685
-6.1934671
-6.1931589
-6.1928432
-6.1925192
-6.1921863
-6.1918435
-6.1914899
-6.1911244
-6.1907458
-6.1903527
-6.1899437
-6.189517
-6.1890707
-6.1886025
-6.1881097
-6.1875895
-6.1870382
-6.1864516
-6.1858247
-6.1851516
-6.1844248
-6.3570617
-6.3563755
-6.355738
-6.3551428
-6.3545847
-6.3540592
-6.3535627
-6.353092
-6.3526444
-6.3522177
-6.3518097
-6.3514188
-6.3510435
-6.3506822
-6.3503339
-6.3499974
-6.3496717
-6.3493561
-6.3490496
-6.3487516
-6.3484614
-6.3481784
-6.347902
-6.3476317
-6.3473671
-6.3471077
-6.3468531
-6.346603
-6.3463568
-6.3461144
-6.3458754
-6.3456394
-6.3454062
-6.3451755
-6.3449471
-6.3447206
-6.3444958
-6.3442725
-6.3440504
-6.3438293
-6.343609
-6.3433891
-6.3431696
-6.3429501
-6.3427304
-6.3425103
-6.3422895
-6.3420678
-6.341845
-6.3416207
-6.3413947
-6.3411668
-6.3409366
-6.3407038
-6.3404681
-6.3402292
-6.3399867
-6.3397402
-6.3394892
-6.3392334
-6.3389722
-6.3387052
-6.3384317
-6.3381511
-6.3378628
-6.3375659
-6.3372597
-6.3369431
-6.3366152
-6.3362748
-6.3359205
-6.3355509
-6.3351642
-6.3347585
-6.3343314
-6.3338804
-6.3334023
-6.3328935
-6.3323496
-6.3317653
-6.3311343
-6.4999735
-6.4994033
-6.4988732
-6.4983781
-6.4979136
-6.4974761
-6.4970626
-6.4966705
-6.4962975
-6.4959418
-6.4956018
-6.4952759
-6.4949628
-6.4946616
-6.4943711
-6.4940904
-6.4938189
-6.4935557
-6.4933001
-6.4930517
-6.4928098
-6.4925739
-6.4923437
-6.4921186
-6.4918983
-6.4916824
-6.4914705
-6.4912624
-6.4910578
-6.4908564
-6.4906578
-6.4904619
-6.4902684
-6.4900771
-6.4898878
-6.4897001
-6.489514
-6.4893293
-6.4891456
-6.4889629
-6.4887809
-6.4885994
-6.4884183
-6.4882374
-6.4880564
-6.4878751
-6.4876935
-6.4875112
-6.487328
-6.4871438
-6.4869583
-6.4867713
-6.4865825
-6.4863917
-6.4861986
-6.486003
-6.4858045
-6.4856028
-6.4853976
-6.4851885
-6.484975
-6.4847568
-6.4845334
-6.4843043
-6.4840689
-6.4838265
-6.4835765
-6.4833181
-6.4830504
-6.4827725
-6.4824833
-6.4821815
-6.4818656
-6.4815341
-6.4811852
-6.4808164
-6.4804255
-6.4800092
-6.4795639
-6.4790854
-6.4785684
-6.6428951
-6.6424589
-6.6420531
-6.6416739
-6.6413178
-6.6409822
-6.6406649
-6.6403637
-6.6400772
-6.6398039
-6.6395424
-6.6392918
-6.6390511
-6.6388193
-6.6385959
-6.63838
-6.6381712
-6.6379687
-6.6377723
-6.6375813
-6.6373954
-6.6372143
-6.6370375
-6.6368648
-6.6366958
-6.6365303
-6.6363681
-6.6362088
-6.6360523
-6.6358984
-6.6357468
-6.6355973
-6.6354499
-6.6353042
-6.6351602
-6.6350176
-6.6348763
-6.6347362
-6.6345971
-6.6344589
-6.6343213
-6.6341843
-6.6340478
-6.6339115
-6.6337753
-6.6336391
-6.6335028
-6.6333661
-6.6332289
-6.6330911
-6.6329525
-6.6328129
-6.6326721
-6.6325299
-6.6323862
-6.6322407
-6.6320932
-6.6319435
-6.6317912
-6.6316361
-6.631478
-6.6313164
-6.631151
-6.6309815
-6.6308073
-6.6306281
-6.6304432
-6.6302522
-6.6300543
-6.6298488
-6.6296349
-6.6294117
-6.629178
-6.6289326
-6.6286741
-6.6284008
-6.6281109
-6.6278019
-6.6274712
-6.6271154
-6.6267306
-6.7858263
-6.7855425
-6.7852781
-6.7850305
-6.7847977
-6.784578
-6.7843699
-6.7841723
-6.7839841
-6.7838044
-6.7836324
-6.7834675
-6.783309
-6.7831564
-6.7830092
-6.7828671
-6.7827296
-6.7825964
-6.7824671
-6.7823416
-6.7822195
-6.7821006
-6.7819847
-6.7818716
-6.7817611
-6.781653
-6.7815472
-6.7814435
-6.7813418
-6.781242
-6.7811438
-6.7810472
-6.7809521
-6.7808584
-6.780766
-6.7806747
-6.7805844
-6.7804951
-6.7804067
-6.7803191
-6.7802321
-6.7801457
-6.7800599
-6.7799744
-6.7798892
-6.7798043
-6.7797195
-6.7796347
-6.7795498
-6.7794648
-6.7793795
-6.7792938
-6.7792076
-6.7791207
-6.7790332
-6.7789447
-6.7788552
-6.7787645
-6.7786724
-6.7785789
-6.7784836
-6.7783864
-6.778287
-6.7781852
-6.7780808
-6.7779733
-6.7778626
-6.7777482
-6.7776297
-6.7775066
-6.7773784
-6.7772445
-6.7771043
-6.7769569
-6.7768014
-6.7766368
-6.7764618
-6.7762751
-6.7760747
-6.7758588
-6.7756246
-6.9287673
-6.9286543
-6.9285482
-6.9284482
-6.9283536
-6.9282638
-6.9281783
-6.9280968
-6.9280188
-6.9279442
-6.9278725
-6.9278037
-6.9277375
-6.9276736
-6.9276121
-6.9275526
-6.9274952
-6.9274396
-6.9273858
-6.9273337
-6.9272832
-6.9272342
-6.9271866
-6.9271404
-6.9270955
-6.9270518
-6.9270093
-6.926968
-6.9269278
-6.9268886
-6.9268504
-6.9268131
-6.9267768
-6.9267414
-6.9267068
-6.926673
-6.92664
-6.9266077
-6.9265762
-6.9265453
-6.9265151
-6.9264855
-6.9264564
-6.926428
-6.9264
-6.9263725
-6.9263455
-6.926319
-6.9262928
-6.9262669
-6.9262414
-6.9262162
-6.9261912
-6.9261664
-6.9261417
-6.9261172
-6.9260928
-6.9260683
-6.9260438
-6.9260192
-6.9259944
-6.9259693
-6.925944
-6.9259182
-6.9258919
-6.925865
-6.9258374
-6.9258089
-6.9257794
-6.9257487
-6.9257167
-6.9256831
-6.9256477
-6.9256102
-6.9255703
-6.9255276
-6.9254817
-6.9254321
-6.9253782
-6.9253191
-6.925254
-1.5392312
-1.5392175
-1.5392049
-1.5391931
-1.5391822
-1.5391721
-1.5391627
-1.5391539
-1.5391457
-1.5391381
-1.539131
-1.5391244
-1.5391182
-1.5391124
-1.539107
-1.539102
-1.5390973
-1.5390929
-1.5390888
-1.539085
-1.5390814
-1.5390781
-1.5390751
-1.5390722
-1.5390696
-1.5390672
-1.5390649
-1.5390629
-1.539061
-1.5390593
-1.5390578
-1.5390564
-1.5390552
-1.5390541
-1.5390532
-1.5390525
-1.5390518
-1.5390513
-1.539051
-1.5390508
-1.5390507
-1.5390508
-1.539051
-1.5390513
-1.5390518
-1.5390525
-1.5390532
-1.5390541
-1.5390552
-1.5390564
-1.5390578
-1.5390593
-1.539061
-1.5390629
-1.5390649
-1.5390672
-1.5390696
-1.5390722
-1.5390751
-1.5390781
-1.5390814
-1.539085
-1.5390888
-1.5390929
-1.5390973
-1.539102
-1.539107
-1.5391124
-1.5391182
-1.5391244
-1.539131
-1.5391381
-1.5391457
-1.5391539
-1.5391627
-1.5391721
-1.5391822
-1.5391931
-1.5392049
-1.5392175
-1.5392312
-1.6190033
-1.6189891
-1.6189759
-1.6189635
-1.6189521
-1.6189414
-1.6189314
-1.6189221
-1.6189134
-1.6189052
-1.6188976
-1.6188905
-1.6188839
-1.6188777
-1.6188719
-1.6188664
-1.6188613
-1.6188566
-1.6188521
-1.618848
-1.6188441
-1.6188405
-1.6188372
-1.6188341
-1.6188312
-1.6188286
-1.6188261
-1.6188239
-1.6188218
-1.61882
-1.6188183
-1.6188168
-1.6188155
-1.6188143
-1.6188133
-1.6188124
-1.6188118
-1.6188112
-1.6188108
-1.6188106
-1.6188105
-1.6188106
-1.6188108
-1.6188112
-1.6188118
-1.6188124
-1.6188133
-1.6188143
-1.6188155
-1.6188168
-1.6188183
-1.61882
-1.6188218
-1.6188239
-1.6188261
-1.6188286
-1.6188312
-1.6188341
-1.6188372
-1.6188405
-1.6188441
-1.618848
-1.6188521
-1.6188566
-1.6188613
-1.6188664
-1.6188719
-1.6188777
-1.6188839
-1.6188905
-1.6188976
-1.6189052
-1.6189134
-1.6189221
-1.6189314
-1.6189414
-1.6189521
-1.6189635
-1.6189759
-1.6189891
-1.6190033
-1.7019664
-1.7019516
-1.7019378
-1.7019249
-1.7019128
-1.7019015
-1.701891
-1.7018811
-1.7018718
-1.7018631
-1.701855
-1.7018474
-1.7018403
-1.7018336
-1.7018273
-1.7018214
-1.7018159
-1.7018108
-1.7018059
-1.7018015
-1.7017973
-1.7017933
-1.7017897
-1.7017863
-1.7017832
-1.7017803
-1.7017776
-1.7017751
-1.7017729
-1.7017709
-1.701769
-1.7017674
-1.7017659
-1.7017646
-1.7017635
-1.7017626
-1.7017618
-1.7017613
-1.7017608
-1.7017606
-1.7017605
-1.7017606
-1.7017608
-1.7017613
-1.7017618
-1.7017626
-1.7017635
-1.7017646
-1.7017659
-1.7017674
-1.701769
-1.7017709
-1.7017729
-1.7017751
-1.7017776
-1.7017803
-1.7017832
-1.7017863
-1.7017897
-1.7017933
-1.7017973
-1.7018015
-1.7018059
-1.7018108
-1.7018159
-1.7018214
-1.7018273
-1.7018336
-1.7018403
-1.7018474
-1.701855
-1.7018631
-1.7018718
-1.7018811
-1.701891
-1.7019015
-1.7019128
-1.7019249
-1.7019378
-1.7019516
-1.7019664
-1.7882481
-1.7882328
-1.7882183
-1.7882048
-1.7881921
-1.7881802
-1.7881691
-1.7881586
-1.7881487
-1.7881395
-1.7881308
-1.7881226
-1.7881149
-1.7881077
-1.788101
-1.7880946
-1.7880887
-1.7880831
-1.7880779
-1.788073
-1.7880684
-1.7880642
-1.7880602
-1.7880565
-1.7880531
-1.7880499
-1.788047
-1.7880443
-1.7880418
-1.7880396
-1.7880376
-1.7880357
-1.7880341
-1.7880327
-1.7880315
-1.7880305
-1.7880297
-1.788029
-1.7880286
-1.7880283
-1.7880282
-1.7880283
-1.7880286
-1.788029
-1.7880297
-1.7880305
-1.7880315
-1.7880327
-1.7880341
-1.7880357
-1.7880376
-1.7880396
-1.7880418
-1.7880443
-1.788047
-1.7880499
-1.7880531
-1.7880565
-1.7880602
-1.7880642
-1.7880684
-1.788073
-1.7880779
-1.7880831
-1.7880887
-1.7880946
-1.788101
-1.7881077
-1.7881149
-1.7881226
-1.7881308
-1.7881395
-1.7881487
-1.7881586
-1.7881691
-1.7881802
-1.7881921
-1.7882048
-1.7882183
-1.7882328
-1.7882481
-1.8779812
-1.8779653
-1.8779502
-1.8779361
-1.8779228
-1.8779102
-1.8778984
-1.8778873
-1.8778768
-1.8778669
-1.8778576
-1.8778489
-1.8778407
-1.8778329
-1.8778256
-1.8778188
-1.8778123
-1.8778063
-1.8778006
-1.8777953
-1.8777903
-1.8777857
-1.8777814
-1.8777773
-1.8777736
-1.8777701
-1.8777669
-1.877764
-1.8777613
-1.8777588
-1.8777566
-1.8777546
-1.8777528
-1.8777513
-1.87775
-1.8777488
-1.8777479
-1.8777472
-1.8777467
-1.8777464
-1.8777463
-1.8777464
-1.8777467
-1.8777472
-1.8777479
-1.8777488
-1.87775
-1.8777513
-1.8777528
-1.8777546
-1.8777566
-1.8777588
-1.8777613
-1.877764
-1.8777669
-1.8777701
-1.8777736
-1.8777773
-1.8777814
-1.8777857
-1.8777903
-1.8777953
-1.8778006
-1.8778063
-1.8778123
-1.8778188
-1.8778256
-1.8778329
-1.8778407
-1.8778489
-1.8778576
-1.8778669
-1.8778768
-1.8778873
-1.8778984
-1.8779102
-1.8779228
-1.8779361
-1.8779502
-1.8779653
-1.8779812
-1.9713037
-1.9712872
-1.9712715
-1.9712567
-1.9712428
-1.9712295
-1.9712171
-1.9712053
-1.9711941
-1.9711836
-1.9711737
-1.9711643
-1.9711555
-1.9711471
-1.9711393
-1.9711319
-1.9711249
-1.9711184
-1.9711122
-1.9711064
-1.971101
-1.971096
-1.9710912
-1.9710868
-1.9710827
-1.971079
-1.9710754
-1.9710722
-1.9710693
-1.9710666
-1.9710641
-1.9710619
-1.97106
-1.9710583
-1.9710568
-1.9710556
-1.9710546
-1.9710538
-1.9710532
-1.9710529
-1.9710528
-1.9710529
-1.9710532
-1.9710538
-1.9710546
-1.9710556
-1.9710568
-1.9710583
-1.97106
-1.9710619
-1.9710641
-1.9710666
-1.9710693
-1.9710722
-1.9710754
-1.971079
-1.9710827
-1.9710868
-1.9710912
-1.971096
-1.971101
-1.9711064
-1.9711122
-1.9711184
-1.9711249
-1.9711319
-1.9711393
-1.9711471
-1.9711555
-1.9711643
-1.9711737
-1.9711836
-1.9711941
-1.9712053
-1.9712171
-1.9712295
-1.9712428
-1.9712567
-1.9712715
-1.9712872
-1.9713037
-2.0683593
-2.0683421
-2.0683258
-2.0683103
-2.0682957
-2.0682818
-2.0682686
-2.0682561
-2.0682443
-2.0682331
-2.0682225
-2.0682124
-2.068203
-2.068194
-2.0681855
-2.0681775
-2.06817
-2.0681629
-2.0681562
-2.06815
-2.0681441
-2.0681385
-2.0681334
-2.0681286
-2.0681241
-2.0681199
-2.0681161
-2.0681125
-2.0681093
-2.0681063
-2.0681037
-2.0681012
-2.0680991
-2.0680972
-2.0680956
-2.0680943
-2.0680931
-2.0680923
-2.0680917
-2.0680913
-2.0680912
-2.0680913
-2.0680917
-2.0680923
-2.0680931
-2.0680943
-2.0680956
-2.0680972
-2.0680991
-2.0681012
-2.0681037
-2.0681063
-2.0681093
-2.0681125
-2.0681161
-2.0681199
-2.0681241
-2.0681286
-2.0681334
-2.0681385
-2.0681441
-2.06815
-2.0681562
-2.0681629
-2.06817
-2.0681775
-2.0681855
-2.068194
-2.068203
-2.0682124
-2.0682225
-2.0682331
-2.0682443
-2.0682561
-2.0682686
-2.0682818
-2.0682957
-2.0683103
-2.0683258
-2.0683421
-2.0683593
-2.1692971
-2.1692793
-2.1692624
-2.1692462
-2.1692309
-2.1692163
-2.1692024
-2.1691891
-2.1691766
-2.1691646
-2.1691533
-2.1691426
-2.1691324
-2.1691228
-2.1691137
-2.169105
-2.1690969
-2.1690892
-2.1690819
-2.1690751
-2.1690687
-2.1690627
-2.169057
-2.1690518
-2.1690469
-2.1690423
-2.1690381
-2.1690342
-2.1690306
-2.1690274
-2.1690244
-2.1690218
-2.1690194
-2.1690174
-2.1690156
-2.1690141
-2.1690128
-2.1690119
-2.1690112
-2.1690108
-2.1690107
-2.1690108
-2.1690112
-2.1690119
-2.1690128
-2.1690141
-2.1690156
-2.1690174
-2.1690194
-2.1690218
-2.1690244
-2.1690274
-2.1690306
-2.1690342
-2.1690381
-2.1690423
-2.1690469
-2.1690518
-2.169057
-2.1690627
-2.1690687
-2.1690751
-2.1690819
-2.1690892
-2.1690969
-2.169105
-2.1691137
-2.1691228
-2.1691324
-2.1691426
-2.1691533
-2.1691646
-2.1691766
-2.1691891
-2.1692024
-2.1692163
-2.1692309
-2.1692462
-2.1692624
-2.1692793
-2.1692971
-2.2742726
-2.2742542
-2.2742366
-2.2742197
-2.2742036
-2.2741883
-2.2741736
-2.2741596
-2.2741463
-2.2741336
-2.2741215
-2.27411
-2.2740991
-2.2740888
-2.2740789
-2.2740696
-2.2740608
-2.2740525
-2.2740446
-2.2740372
-2.2740302
-2.2740236
-2.2740175
-2.2740117
-2.2740063
-2.2740013
-2.2739967
-2.2739924
-2.2739885
-2.2739849
-2.2739817
-2.2739788
-2.2739762
-2.2739739
-2.2739719
-2.2739703
-2.2739689
-2.2739678
-2.2739671
-2.2739667
-2.2739665
-2.2739667
-2.2739671
-2.2739678
-2.2739689
-2.2739703
-2.2739719
-2.2739739
-2.2739762
-2.2739788
-2.2739817
-2.2739849
-2.2739885
-2.2739924
-2.2739967
-2.2740013
-2.2740063
-2.2740117
-2.2740175
-2.2740236
-2.2740302
-2.2740372
-2.2740446
-2.2740525
-2.2740608
-2.2740696
-2.2740789
-2.2740888
-2.2740991
-2.27411
-2.2741215
-2.2741336
-2.2741463
-2.2741596
-2.2741736
-2.2741883
-2.2742036
-2.2742197
-2.2742366
-2.2742542
-2.2742726
-2.3834472
-2.3834282
-2.3834099
-2.3833923
-2.3833755
-2.3833593
-2.3833439
-2.3833291
-2.383315
-2.3833015
-2.3832886
-2.3832763
-2.3832646
-2.3832535
-2.3832429
-2.3832328
-2.3832233
-2.3832142
-2.3832057
-2.3831976
-2.38319
-2.3831828
-2.3831761
-2.3831698
-2.3831639
-2.3831584
-2.3831534
-2.3831487
-2.3831443
-2.3831404
-2.3831368
-2.3831336
-2.3831307
-2.3831282
-2.383126
-2.3831242
-2.3831227
-2.3831215
-2.3831207
-2.3831202
-2.38312
-2.3831202
-2.3831207
-2.3831215
-2.3831227
-2.3831242
-2.383126
-2.3831282
-2.3831307
-2.3831336
-2.3831368
-2.3831404
-2.3831443
-2.3831487
-2.3831534
-2.3831584
-2.3831639
-2.3831698
-2.3831761
-2.3831828
-2.38319
-2.3831976
-2.3832057
-2.3832142
-2.3832233
-2.3832328
-2.3832429
-2.3832535
-2.3832646
-2.3832763
-2.3832886
-2.3833015
-2.383315
-2.3833291
-2.3833439
-2.3833593
-2.3833755
-2.3833923
-2.3834099
-2.3834282
-2.3834472
-2.4969889
-2.4969692
-2.4969502
-2.4969319
-2.4969143
-2.4968974
-2.4968811
-2.4968655
-2.4968505
-2.4968362
-2.4968224
-2.4968093
-2.4967968
-2.4967848
-2.4967734
-2.4967625
-2.4967522
-2.4967424
-2.4967331
-2.4967244
-2.4967161
-2.4967082
-2.4967009
-2.496694
-2.4966875
-2.4966815
-2.4966759
-2.4966707
-2.496666
-2.4966616
-2.4966577
-2.4966541
-2.496651
-2.4966482
-2.4966458
-2.4966437
-2.4966421
-2.4966408
-2.4966399
-2.4966393
-2.4966391
-2.4966393
-2.4966399
-2.4966408
-2.4966421
-2.4966437
-2.4966458
-2.4966482
-2.496651
-2.4966541
-2.4966577
-2.4966616
-2.496666
-2.4966707
-2.4966759
-2.4966815
-2.4966875
-2.496694
-2.4967009
-2.4967082
-2.4967161
-2.4967244
-2.4967331
-2.4967424
-2.4967522
-2.4967625
-2.4967734
-2.4967848
-2.4967968
-2.4968093
-2.4968224
-2.4968362
-2.4968505
-2.4968655
-2.4968811
-2.4968974
-2.4969143
-2.4969319
-2.4969502
-2.4969692
-2.4969889
-2.6150724
-2.615052
-2.6150324
-2.6150133
-2.6149949
-2.6149772
-2.61496
-2.6149435
-2.6149277
-2.6149124
-2.6148978
-2.6148838
-2.6148703
-2.6148575
-2.6148452
-2.6148335
-2.6148223
-2.6148117
-2.6148016
-2.614792
-2.614783
-2.6147744
-2.6147664
-2.6147588
-2.6147518
-2.6147451
-2.614739
-2.6147333
-2.614728
-2.6147232
-2.6147189
-2.6147149
-2.6147114
-2.6147084
-2.6147057
-2.6147034
-2.6147016
-2.6147002
-2.6146992
-2.6146986
-2.6146984
-2.6146986
-2.6146992
-2.6147002
-2.6147016
-2.6147034
-2.6147057
-2.6147084
-2.6147114
-2.6147149
-2.6147189
-2.6147232
-2.614728
-2.6147333
-2.614739
-2.6147451
-2.6147518
-2.6147588
-2.6147664
-2.6147744
-2.614783
-2.614792
-2.6148016
-2.6148117
-2.6148223
-2.6148335
-2.6148452
-2.6148575
-2.6148703
-2.6148838
-2.6148978
-2.6149124
-2.6149277
-2.6149435
-2.61496
-2.6149772
-2.6149949
-2.6150133
-2.6150324
-2.615052
-2.6150724
-2.7378793
-2.7378583