/*--------------------------------*- C++ -*----------------------------------*\
| =========                 |                                                 |
| \\      /  F ield         | OpenFOAM: The Open Source CFD Toolbox           |
|  \\    /   O peration     | Version:  v2006                                 |
|   \\  /    A nd           | Website:  www.openfoam.com                      |
|    \\/     M anipulation  |                                                 |
\*---------------------------------------------------------------------------*/
FoamFile
{
    version     2.0;
    format      ascii;
    class       volScalarField;
    location    "6000";
    object      k;
}
// * * * * * * * * * * * * * * * * * * * * * * * * * * * * * * * * * * * * * //

dimensions      [0 2 -2 0 0 0 0];


internalField   nonuniform List<scalar> 
102907
(
4.3333331e-10
8.3423437e-10
4.270769e-09
1.0381238e-08
1.6130356e-08
1.9975022e-08
2.2006342e-08
2.2878726e-08
2.3171413e-08
2.3232845e-08
2.3226418e-08
2.3211395e-08
2.3201941e-08
2.3197841e-08
2.3196531e-08
2.319639e-08
2.3196473e-08
2.3196501e-08
2.3196432e-08
2.319632e-08
2.3196271e-08
2.3196269e-08
2.3196266e-08
2.3196202e-08
2.3196076e-08
2.3195927e-08
2.319579e-08
2.3195674e-08
2.3195575e-08
2.3195477e-08
2.3195373e-08
2.3195261e-08
2.3195144e-08
2.319502e-08
2.3194892e-08
2.319476e-08
2.3194624e-08
2.3194483e-08
2.319433e-08
2.3194164e-08
2.3193994e-08
2.3193818e-08
2.3193636e-08
2.3193448e-08
2.3193254e-08
2.3193052e-08
2.3192841e-08
2.3192622e-08
2.3192397e-08
2.3192166e-08
2.3191926e-08
2.319168e-08
2.3191425e-08
2.3191162e-08
2.3190888e-08
2.31906e-08
2.3190295e-08
2.3189974e-08
2.3189636e-08
2.3189285e-08
2.3188922e-08
2.3188552e-08
2.3188177e-08
2.3187801e-08
2.3187422e-08
2.3187044e-08
2.318666e-08
2.3186272e-08
2.3185875e-08
2.3185472e-08
2.3185056e-08
2.318463e-08
2.3184191e-08
2.3183744e-08
2.3183289e-08
2.3182833e-08
2.3182367e-08
2.3181891e-08
2.3181388e-08
2.3180873e-08
2.3180363e-08
4.2257956e-10
9.9788352e-10
5.1066389e-09
1.1841728e-08
1.7713951e-08
2.1356943e-08
2.3132931e-08
2.3823615e-08
2.4021252e-08
2.4045127e-08
2.4028796e-08
2.401341e-08
2.4005292e-08
2.4001977e-08
2.400079e-08
2.400037e-08
2.3999984e-08
2.3999512e-08
2.3998993e-08
2.3998473e-08
2.3998006e-08
2.3997598e-08
2.3997174e-08
2.3996693e-08
2.3996175e-08
2.3995651e-08
2.3995145e-08
2.3994669e-08
2.3994209e-08
2.3993753e-08
2.3993294e-08
2.3992834e-08
2.3992372e-08
2.3991906e-08
2.3991436e-08
2.3990967e-08
2.3990494e-08
2.3990019e-08
2.3989534e-08
2.3989037e-08
2.3988534e-08
2.3988026e-08
2.3987511e-08
2.3986991e-08
2.3986462e-08
2.3985926e-08
2.3985377e-08
2.398482e-08
2.3984251e-08
2.3983677e-08
2.3983088e-08
2.3982492e-08
2.398188e-08
2.398126e-08
2.398062e-08
2.3979963e-08
2.3979281e-08
2.3978577e-08
2.3977844e-08
2.397709e-08
2.3976313e-08
2.3975521e-08
2.3974711e-08
2.3973891e-08
2.3973054e-08
2.3972205e-08
2.3971334e-08
2.3970446e-08
2.3969529e-08
2.3968587e-08
2.3967609e-08
2.3966599e-08
2.3965547e-08
2.3964456e-08
2.3963321e-08
2.3962152e-08
2.3960928e-08
2.395965e-08
2.3958286e-08
2.3956843e-08
2.3955339e-08
4.1851958e-10
1.1979391e-09
6.0675748e-09
1.3410987e-08
1.9334151e-08
2.2735201e-08
2.4256437e-08
2.4784295e-08
2.4905161e-08
2.4902757e-08
2.488151e-08
2.4867197e-08
2.4860464e-08
2.4857692e-08
2.4856475e-08
2.4855609e-08
2.4854677e-08
2.485373e-08
2.4852767e-08
2.4851813e-08
2.4850921e-08
2.4850078e-08
2.4849219e-08
2.484832e-08
2.4847396e-08
2.4846483e-08
2.4845599e-08
2.4844751e-08
2.484392e-08
2.4843097e-08
2.4842272e-08
2.4841452e-08
2.484063e-08
2.4839814e-08
2.4838995e-08
2.4838182e-08
2.4837361e-08
2.4836544e-08
2.4835714e-08
2.4834876e-08
2.4834031e-08
2.4833184e-08
2.4832326e-08
2.4831466e-08
2.4830593e-08
2.4829715e-08
2.482882e-08
2.4827915e-08
2.4826994e-08
2.4826065e-08
2.4825119e-08
2.4824162e-08
2.4823188e-08
2.4822199e-08
2.4821188e-08
2.4820153e-08
2.4819087e-08
2.4817989e-08
2.4816855e-08
2.4815688e-08
2.4814487e-08
2.4813259e-08
2.4812004e-08
2.4810727e-08
2.4809422e-08
2.4808092e-08
2.4806726e-08
2.4805325e-08
2.4803878e-08
2.4802384e-08
2.4800835e-08
2.4799227e-08
2.479755e-08
2.4795803e-08
2.4793977e-08
2.4792076e-08
2.4790083e-08
2.4787987e-08
2.4785747e-08
2.4783359e-08
2.4780847e-08
4.225937e-10
1.447122e-09
7.1995636e-09
1.5130569e-08
2.1020269e-08
2.4131302e-08
2.5394223e-08
2.5774464e-08
2.5833949e-08
2.5814407e-08
2.5791941e-08
2.5779534e-08
2.5774049e-08
2.5771586e-08
2.5770139e-08
2.5768703e-08
2.576724e-08
2.5765824e-08
2.5764409e-08
2.5763012e-08
2.5761679e-08
2.5760392e-08
2.575909e-08
2.5757762e-08
2.5756428e-08
2.575512e-08
2.575385e-08
2.5752621e-08
2.5751413e-08
2.5750214e-08
2.5749019e-08
2.5747832e-08
2.5746649e-08
2.5745473e-08
2.5744299e-08
2.5743131e-08
2.574196e-08
2.5740791e-08
2.5739615e-08
2.5738429e-08
2.5737238e-08
2.5736042e-08
2.5734839e-08
2.5733629e-08
2.5732409e-08
2.5731179e-08
2.5729934e-08
2.5728675e-08
2.5727398e-08
2.5726106e-08
2.57248e-08
2.5723475e-08
2.5722134e-08
2.5720769e-08
2.5719381e-08
2.5717961e-08
2.5716506e-08
2.5715007e-08
2.5713465e-08
2.5711876e-08
2.5710246e-08
2.5708575e-08
2.5706868e-08
2.5705125e-08
2.5703346e-08
2.5701526e-08
2.5699658e-08
2.5697735e-08
2.569575e-08
2.5693695e-08
2.5691565e-08
2.5689348e-08
2.5687038e-08
2.5684622e-08
2.5682093e-08
2.5679449e-08
2.5676673e-08
2.5673745e-08
2.5670617e-08
2.566727e-08
2.5663729e-08
4.3591419e-10
1.7586467e-09
8.5217344e-09
1.6991806e-08
2.2755832e-08
2.5537869e-08
2.6549332e-08
2.680229e-08
2.6816219e-08
2.6787418e-08
2.6766265e-08
2.6756001e-08
2.6751455e-08
2.6749083e-08
2.674715e-08
2.6745115e-08
2.6743145e-08
2.6741263e-08
2.6739388e-08
2.6737537e-08
2.6735751e-08
2.6734005e-08
2.6732253e-08
2.6730491e-08
2.6728742e-08
2.6727032e-08
2.6725371e-08
2.6723752e-08
2.6722158e-08
2.6720578e-08
2.6719008e-08
2.6717448e-08
2.6715898e-08
2.6714356e-08
2.671282e-08
2.6711292e-08
2.6709764e-08
2.670824e-08
2.6706711e-08
2.6705173e-08
2.670363e-08
2.6702081e-08
2.6700525e-08
2.6698961e-08
2.6697387e-08
2.6695801e-08
2.66942e-08
2.6692582e-08
2.6690946e-08
2.6689289e-08
2.6687616e-08
2.6685919e-08
2.6684202e-08
2.6682457e-08
2.6680686e-08
2.6678877e-08
2.6677026e-08
2.6675124e-08
2.6673168e-08
2.6671154e-08
2.6669087e-08
2.6666968e-08
2.6664803e-08
2.666259e-08
2.666033e-08
2.6658014e-08
2.6655636e-08
2.6653185e-08
2.6650654e-08
2.6648033e-08
2.6645313e-08
2.6642484e-08
2.663953e-08
2.6636441e-08
2.66332e-08
2.6629804e-08
2.6626234e-08
2.6622467e-08
2.6618441e-08
2.6614126e-08
2.6609545e-08
4.6029209e-10
2.1525724e-09
1.0060478e-08
1.899341e-08
2.453465e-08
2.69573e-08
2.7731606e-08
2.7879179e-08
2.7861928e-08
2.7829932e-08
2.7811517e-08
2.7803222e-08
2.7799269e-08
2.7796719e-08
2.7794151e-08
2.779153e-08
2.7789069e-08
2.778672e-08
2.7784378e-08
2.7782062e-08
2.7779811e-08
2.7777599e-08
2.7775391e-08
2.7773192e-08
2.7771025e-08
2.7768911e-08
2.7766853e-08
2.776484e-08
2.7762854e-08
2.7760887e-08
2.7758936e-08
2.7757001e-08
2.7755079e-08
2.7753169e-08
2.7751268e-08
2.7749376e-08
2.7747486e-08
2.7745603e-08
2.7743716e-08
2.7741826e-08
2.7739926e-08
2.7738022e-08
2.7736109e-08
2.7734189e-08
2.7732258e-08
2.7730313e-08
2.7728352e-08
2.7726373e-08
2.7724373e-08
2.772235e-08
2.7720304e-08
2.7718234e-08
2.7716136e-08
2.771401e-08
2.771185e-08
2.7709652e-08
2.7707403e-08
2.7705097e-08
2.7702723e-08
2.7700283e-08
2.7697775e-08
2.7695207e-08
2.7692578e-08
2.7689892e-08
2.7687144e-08
2.7684331e-08
2.7681438e-08
2.7678457e-08
2.7675375e-08
2.7672185e-08
2.766887e-08
2.7665424e-08
2.7661824e-08
2.7658057e-08
2.76541e-08
2.7649948e-08
2.7645578e-08
2.7640967e-08
2.7636039e-08
2.7630749e-08
2.7625122e-08
4.9825231e-10
2.6592326e-09
1.1840649e-08
2.1128379e-08
2.6348808e-08
2.8393577e-08
2.8952158e-08
2.9017163e-08
2.8981365e-08
2.89505e-08
2.8935343e-08
2.8928595e-08
2.8924917e-08
2.8921867e-08
2.8918633e-08
2.8915464e-08
2.8912524e-08
2.8909705e-08
2.8906888e-08
2.8904101e-08
2.8901374e-08
2.889869e-08
2.8896026e-08
2.8893392e-08
2.8890805e-08
2.8888285e-08
2.8885827e-08
2.8883418e-08
2.8881037e-08
2.8878682e-08
2.8876347e-08
2.8874035e-08
2.8871739e-08
2.8869461e-08
2.8867192e-08
2.8864936e-08
2.8862683e-08
2.886044e-08
2.8858193e-08
2.8855947e-08
2.8853691e-08
2.8851431e-08
2.8849162e-08
2.8846885e-08
2.8844596e-08
2.8842293e-08
2.883997e-08
2.8837629e-08
2.8835262e-08
2.8832873e-08
2.8830455e-08
2.882801e-08
2.8825531e-08
2.8823023e-08
2.8820475e-08
2.8817888e-08
2.8815243e-08
2.8812533e-08
2.8809745e-08
2.8806878e-08
2.880393e-08
2.880091e-08
2.8797816e-08
2.8794656e-08
2.8791421e-08
2.8788108e-08
2.8784701e-08
2.878119e-08
2.8777558e-08
2.8773799e-08
2.8769891e-08
2.8765827e-08
2.8761582e-08
2.8757139e-08
2.8752468e-08
2.8747559e-08
2.8742388e-08
2.8736933e-08
2.8731106e-08
2.8724843e-08
2.8718169e-08
5.5342282e-10
3.3253301e-09
1.3884475e-08
2.3386834e-08
2.8192363e-08
2.98554e-08
3.0224623e-08
3.022949e-08
3.0185478e-08
3.0158364e-08
3.0146307e-08
3.0140591e-08
3.0136839e-08
3.0133103e-08
3.0129229e-08
3.0125543e-08
3.0122135e-08
3.0118846e-08
3.0115553e-08
3.0112286e-08
3.0109079e-08
3.0105923e-08
3.0102806e-08
3.009974e-08
3.0096737e-08
3.0093813e-08
3.0090956e-08
3.008815e-08
3.0085376e-08
3.0082634e-08
3.0079917e-08
3.0077228e-08
3.007456e-08
3.0071914e-08
3.006928e-08
3.0066662e-08
3.0064048e-08
3.0061446e-08
3.0058841e-08
3.0056241e-08
3.0053629e-08
3.0051016e-08
3.0048393e-08
3.0045763e-08
3.0043118e-08
3.0040459e-08
3.0037777e-08
3.0035077e-08
3.0032347e-08
3.0029594e-08
3.0026806e-08
3.0023989e-08
3.0021133e-08
3.0018244e-08
3.0015314e-08
3.001234e-08
3.0009305e-08
3.0006197e-08
3.0002999e-08
2.9999711e-08
2.9996326e-08
2.9992856e-08
2.9989301e-08
2.9985668e-08
2.9981949e-08
2.9978142e-08
2.9974225e-08
2.997019e-08
2.9966014e-08
2.9961691e-08
2.9957196e-08
2.9952522e-08
2.9947637e-08
2.9942525e-08
2.9937148e-08
2.993149e-08
2.9925524e-08
2.9919231e-08
2.9912518e-08
2.9905293e-08
2.9897579e-08
6.3054239e-10
4.218184e-09
1.6207864e-08
2.5756193e-08
3.0061782e-08
3.1352332e-08
3.1564808e-08
3.1530399e-08
3.1485915e-08
3.1463696e-08
3.1454156e-08
3.1449003e-08
3.1444764e-08
3.144032e-08
3.1435862e-08
3.1431686e-08
3.1427822e-08
3.1424068e-08
3.1420299e-08
3.141655e-08
3.1412863e-08
3.1409241e-08
3.140568e-08
3.1402188e-08
3.1398777e-08
3.1395454e-08
3.1392203e-08
3.1389005e-08
3.1385844e-08
3.138272e-08
3.1379628e-08
3.1376567e-08
3.1373532e-08
3.1370523e-08
3.136753e-08
3.1364554e-08
3.1361587e-08
3.1358632e-08
3.1355677e-08
3.1352728e-08
3.1349767e-08
3.1346806e-08
3.1343836e-08
3.1340857e-08
3.1337863e-08
3.1334855e-08
3.1331823e-08
3.1328769e-08
3.1325684e-08
3.1322572e-08
3.1319424e-08
3.1316241e-08
3.1313017e-08
3.1309755e-08
3.1306449e-08
3.1303097e-08
3.1299682e-08
3.1296187e-08
3.1292591e-08
3.1288889e-08
3.1285077e-08
3.1281166e-08
3.1277157e-08
3.127306e-08
3.1268868e-08
3.1264575e-08
3.1260162e-08
3.1255614e-08
3.1250908e-08
3.1246032e-08
3.1240964e-08
3.1235691e-08
3.1230181e-08
3.1224414e-08
3.1218348e-08
3.1211957e-08
3.1205213e-08
3.1198101e-08
3.1190522e-08
3.1182359e-08
3.1173625e-08
7.3548704e-10
5.4080132e-09
1.881832e-08
2.8222351e-08
3.1957149e-08
3.2900086e-08
3.2990722e-08
3.2935188e-08
3.289524e-08
3.2877902e-08
3.2870112e-08
3.2865051e-08
3.2860096e-08
3.285499e-08
3.2849994e-08
3.2845355e-08
3.2841052e-08
3.2836847e-08
3.2832606e-08
3.2828379e-08
3.2824221e-08
3.2820149e-08
3.2816158e-08
3.2812254e-08
3.2808446e-08
3.2804736e-08
3.28011e-08
3.2797521e-08
3.2793984e-08
3.2790491e-08
3.2787034e-08
3.2783614e-08
3.2780223e-08
3.2776861e-08
3.2773519e-08
3.2770198e-08
3.2766887e-08
3.2763592e-08
3.2760297e-08
3.2757011e-08
3.2753714e-08
3.2750416e-08
3.2747109e-08
3.2743795e-08
3.2740464e-08
3.2737118e-08
3.2733748e-08
3.2730354e-08
3.2726927e-08
3.272347e-08
3.2719974e-08
3.271644e-08
3.271286e-08
3.2709238e-08
3.2705569e-08
3.2701853e-08
3.2698074e-08
3.2694211e-08
3.2690234e-08
3.2686137e-08
3.2681913e-08
3.2677577e-08
3.267313e-08
3.2668585e-08
3.2663935e-08
3.2659177e-08
3.2654286e-08
3.2649246e-08
3.2644029e-08
3.2638624e-08
3.2633004e-08
3.2627155e-08
3.2621044e-08
3.2614649e-08
3.2607921e-08
3.2600829e-08
3.2593334e-08
3.2585432e-08
3.2577024e-08
3.2567966e-08
3.2558246e-08
8.7643751e-10
6.9230349e-09
2.1722207e-08
3.0770415e-08
3.3883707e-08
3.4518498e-08
3.4522261e-08
3.4460011e-08
3.4427256e-08
3.4414035e-08
3.4407281e-08
3.4401776e-08
3.4396109e-08
3.4390425e-08
3.4384936e-08
3.4379864e-08
3.4375155e-08
3.4370517e-08
3.4365815e-08
3.4361124e-08
3.4356517e-08
3.4352018e-08
3.4347618e-08
3.4343323e-08
3.433914e-08
3.4335061e-08
3.4331058e-08
3.4327115e-08
3.4323222e-08
3.4319378e-08
3.4315575e-08
3.4311814e-08
3.4308086e-08
3.430439e-08
3.4300717e-08
3.4297069e-08
3.4293433e-08
3.4289815e-08
3.4286199e-08
3.4282595e-08
3.4278981e-08
3.4275365e-08
3.4271741e-08
3.4268109e-08
3.4264461e-08
3.4260796e-08
3.4257108e-08
3.4253394e-08
3.4249646e-08
3.4245865e-08
3.4242043e-08
3.4238179e-08
3.4234265e-08
3.4230304e-08
3.4226292e-08
3.4222233e-08
3.4218114e-08
3.421391e-08
3.4209583e-08
3.4205118e-08
3.4200509e-08
3.4195771e-08
3.4190911e-08
3.4185944e-08
3.4180864e-08
3.4175668e-08
3.4170328e-08
3.4164827e-08
3.4159133e-08
3.4153232e-08
3.4147096e-08
3.4140708e-08
3.4134033e-08
3.412705e-08
3.4119705e-08
3.4111956e-08
3.4103757e-08
3.409511e-08
3.4085929e-08
3.4076038e-08
3.4065386e-08
1.0677196e-09
8.8903571e-09
2.4940833e-08
3.3383592e-08
3.5855198e-08
3.6232103e-08
3.6180751e-08
3.6122498e-08
3.6097532e-08
3.6087269e-08
3.6080862e-08
3.6074659e-08
3.6068362e-08
3.6062177e-08
3.605624e-08
3.6050783e-08
3.6045713e-08
3.604067e-08
3.6035526e-08
3.6030397e-08
3.6025377e-08
3.6020485e-08
3.6015707e-08
3.6011055e-08
3.6006527e-08
3.6002108e-08
3.5997765e-08
3.5993488e-08
3.5989266e-08
3.59851e-08
3.598098e-08
3.5976906e-08
3.5972868e-08
3.5968867e-08
3.5964891e-08
3.5960943e-08
3.5957009e-08
3.5953096e-08
3.5949186e-08
3.5945291e-08
3.5941389e-08
3.5937486e-08
3.5933572e-08
3.5929651e-08
3.5925714e-08
3.5921761e-08
3.5917782e-08
3.5913779e-08
3.590974e-08
3.5905666e-08
3.5901549e-08
3.5897386e-08
3.589317e-08
3.5888902e-08
3.5884579e-08
3.5880208e-08
3.5875782e-08
3.587128e-08
3.5866644e-08
3.5861851e-08
3.5856895e-08
3.5851794e-08
3.5846557e-08
3.5841205e-08
3.5835733e-08
3.5830141e-08
3.5824398e-08
3.5818483e-08
3.5812359e-08
3.5806013e-08
3.5799412e-08
3.5792539e-08
3.5785356e-08
3.5777843e-08
3.5769943e-08
3.5761607e-08
3.5752771e-08
3.5743447e-08
3.5733572e-08
3.572294e-08
3.571144e-08
1.3303705e-09
1.1421425e-08
2.8456446e-08
3.6050706e-08
3.7898318e-08
3.8068108e-08
3.799046e-08
3.7942158e-08
3.7923953e-08
3.7915508e-08
3.7908784e-08
3.7901915e-08
3.7895122e-08
3.7888512e-08
3.7882184e-08
3.7876414e-08
3.7871046e-08
3.7865634e-08
3.7860081e-08
3.7854564e-08
3.784918e-08
3.7843941e-08
3.7838832e-08
3.7833869e-08
3.7829041e-08
3.7824324e-08
3.7819684e-08
3.7815114e-08
3.7810605e-08
3.7806158e-08
3.7801761e-08
3.7797415e-08
3.7793108e-08
3.7788842e-08
3.7784603e-08
3.7780396e-08
3.7776204e-08
3.7772036e-08
3.7767873e-08
3.7763726e-08
3.7759574e-08
3.7755427e-08
3.7751264e-08
3.7747096e-08
3.7742912e-08
3.7738712e-08
3.7734486e-08
3.7730235e-08
3.7725948e-08
3.7721625e-08
3.7717256e-08
3.7712841e-08
3.7708369e-08
3.7703842e-08
3.7699253e-08
3.7694614e-08
3.7689925e-08
3.7685183e-08
3.7680299e-08
3.7675236e-08
3.7669988e-08
3.7664576e-08
3.7659016e-08
3.7653332e-08
3.7647526e-08
3.7641598e-08
3.7635515e-08
3.7629252e-08
3.7622768e-08
3.7616046e-08
3.7609055e-08
3.7601774e-08
3.7594161e-08
3.7586201e-08
3.7577835e-08
3.7569008e-08
3.7559634e-08
3.754973e-08
3.7539273e-08
3.7528029e-08
3.75158e-08
1.6982819e-09
1.465072e-08
3.2228996e-08
3.8758363e-08
4.0032708e-08
4.0058294e-08
3.9976924e-08
3.9940708e-08
3.9927498e-08
3.9919846e-08
3.9912523e-08
3.9905142e-08
3.9897981e-08
3.9891032e-08
3.9884396e-08
3.987841e-08
3.9872832e-08
3.9867101e-08
3.9861193e-08
3.985536e-08
3.9849681e-08
3.9844158e-08
3.9838784e-08
3.9833577e-08
3.9828512e-08
3.9823555e-08
3.9818677e-08
3.9813875e-08
3.9809138e-08
3.9804469e-08
3.9799852e-08
3.9795292e-08
3.9790772e-08
3.9786298e-08
3.9781853e-08
3.9777443e-08
3.977305e-08
3.9768683e-08
3.9764323e-08
3.9759981e-08
3.9755636e-08
3.9751299e-08
3.9746946e-08
3.9742591e-08
3.9738218e-08
3.973383e-08
3.9729416e-08
3.9724977e-08
3.9720502e-08
3.9715992e-08
3.9711434e-08
3.970683e-08
3.9702166e-08
3.9697446e-08
3.9692658e-08
3.9687815e-08
3.9682922e-08
3.9678013e-08
3.9672968e-08
3.9667715e-08
3.9662251e-08
3.9656605e-08
3.9650796e-08
3.9644859e-08
3.9638797e-08
3.9632616e-08
3.962628e-08
3.9619764e-08
3.9613014e-08
3.9606016e-08
3.9598737e-08
3.9591156e-08
3.9583224e-08
3.9574931e-08
3.9566221e-08
3.955704e-08
3.9547268e-08
3.9536918e-08
3.9526032e-08
3.9514357e-08
3.9501569e-08
2.2290677e-09
1.872068e-08
3.6153199e-08
4.1517045e-08
4.2300304e-08
4.2238568e-08
4.2168228e-08
4.214329e-08
4.2133246e-08
4.2125554e-08
4.2117723e-08
4.2110039e-08
4.210265e-08
4.2095475e-08
4.2088644e-08
4.2082581e-08
4.2076905e-08
4.2070922e-08
4.2064752e-08
4.2058698e-08
4.2052812e-08
4.2047098e-08
4.2041553e-08
4.2036195e-08
4.2030976e-08
4.2025863e-08
4.2020831e-08
4.201588e-08
4.2010998e-08
4.2006186e-08
4.2001431e-08
4.1996735e-08
4.1992082e-08
4.1987478e-08
4.1982905e-08
4.197837e-08
4.1973855e-08
4.1969368e-08
4.196489e-08
4.1960432e-08
4.1955971e-08
4.1951522e-08
4.1947057e-08
4.1942596e-08
4.1938113e-08
4.193362e-08
4.1929099e-08
4.1924556e-08
4.1919976e-08
4.1915364e-08
4.1910703e-08
4.1905998e-08
4.1901231e-08
4.1896408e-08
4.1891513e-08
4.188656e-08
4.188155e-08
4.1876549e-08
4.1871466e-08
4.1866141e-08
4.1860567e-08
4.1854793e-08
4.1848839e-08
4.1842754e-08
4.1836545e-08
4.1830226e-08
4.1823758e-08
4.1817116e-08
4.1810234e-08
4.1803094e-08
4.1795669e-08
4.1787937e-08
4.1779838e-08
4.1771373e-08
4.1762486e-08
4.1753132e-08
4.174316e-08
4.173255e-08
4.1721447e-08
4.1709582e-08
4.1696476e-08
3.0235447e-09
2.3764218e-08
4.0215398e-08
4.4366646e-08
4.4745462e-08
4.4647639e-08
4.4596073e-08
4.4579756e-08
4.4571276e-08
4.4563239e-08
4.4555173e-08
4.4547415e-08
4.4539961e-08
4.4532717e-08
4.4525852e-08
4.4519896e-08
4.4514268e-08
4.4508136e-08
4.4501845e-08
4.4495682e-08
4.4489706e-08
4.4483937e-08
4.4478357e-08
4.4472971e-08
4.4467715e-08
4.4462562e-08
4.4457491e-08
4.4452505e-08
4.4447589e-08
4.4442747e-08
4.4437963e-08
4.4433241e-08
4.4428564e-08
4.4423938e-08
4.4419345e-08
4.4414792e-08
4.4410261e-08
4.4405762e-08
4.4401271e-08
4.4396805e-08
4.4392337e-08
4.4387884e-08
4.4383416e-08
4.4378956e-08
4.4374473e-08
4.4369987e-08
4.436547e-08
4.4360938e-08
4.4356367e-08
4.4351769e-08
4.4347121e-08
4.4342435e-08
4.4337686e-08
4.4332884e-08
4.4328007e-08
4.4323072e-08
4.4318077e-08
4.4313102e-08
4.4308092e-08
4.4302878e-08
4.4297346e-08
4.4291587e-08
4.4285631e-08
4.4279543e-08
4.4273338e-08
4.4267036e-08
4.4260597e-08
4.4254005e-08
4.4247175e-08
4.4240078e-08
4.4232701e-08
4.4225021e-08
4.4216964e-08
4.4208543e-08
4.4199709e-08
4.4190426e-08
4.418053e-08
4.4169919e-08
4.4158882e-08
4.4147151e-08
4.4134064e-08
4.2729644e-09
2.9859391e-08
4.4673639e-08
4.7343853e-08
4.7421697e-08
4.7329421e-08
4.7297073e-08
4.728613e-08
4.7278115e-08
4.7269965e-08
4.7262021e-08
4.7254441e-08
4.7247138e-08
4.7240046e-08
4.7233365e-08
4.7227765e-08
4.7222376e-08
4.7216267e-08
4.7210005e-08
4.7203891e-08
4.7198009e-08
4.7192372e-08
4.7186942e-08
4.7181693e-08
4.7176559e-08
4.7171524e-08
4.7166572e-08
4.7161706e-08
4.7156911e-08
4.715219e-08
4.7147528e-08
4.7142929e-08
4.7138376e-08
4.7133876e-08
4.712941e-08
4.7124987e-08
4.7120586e-08
4.711622e-08
4.7111865e-08
4.7107536e-08
4.7103208e-08
4.7098898e-08
4.7094575e-08
4.7090264e-08
4.7085932e-08
4.7081602e-08
4.7077243e-08
4.7072875e-08
4.7068469e-08
4.7064043e-08
4.7059568e-08
4.7055062e-08
4.7050495e-08
4.7045882e-08
4.7041194e-08
4.703645e-08
4.7031654e-08
4.702687e-08
4.7022091e-08
4.70172e-08
4.7011934e-08
4.7006388e-08
4.7000624e-08
4.6994731e-08
4.6988737e-08
4.6982665e-08
4.6976473e-08
4.6970165e-08
4.6963641e-08
4.6956837e-08
4.694977e-08
4.6942419e-08
4.6934691e-08
4.692661e-08
4.6918141e-08
4.6909257e-08
4.689981e-08
4.6889569e-08
4.6878971e-08
4.6867803e-08
4.6855214e-08
6.5694682e-09
3.6935953e-08
4.8924195e-08
5.0450704e-08
5.0397176e-08
5.033251e-08
5.0314392e-08
5.0306191e-08
5.0298402e-08
5.0290639e-08
5.0283216e-08
5.0276131e-08
5.0269277e-08
5.0262639e-08
5.0256445e-08
5.0251524e-08
5.0246633e-08
5.0240781e-08
5.0234739e-08
5.0228908e-08
5.0223391e-08
5.0218146e-08
5.0213102e-08
5.0208209e-08
5.0203417e-08
5.0198719e-08
5.0194101e-08
5.0189568e-08
5.0185103e-08
5.018071e-08
5.0176376e-08
5.0172104e-08
5.0167878e-08
5.0163705e-08
5.0159566e-08
5.0155472e-08
5.0151401e-08
5.0147367e-08
5.0143346e-08
5.0139354e-08
5.0135365e-08
5.0131399e-08
5.0127423e-08
5.0123463e-08
5.0119486e-08
5.0115516e-08
5.0111523e-08
5.0107526e-08
5.0103497e-08
5.0099454e-08
5.009537e-08
5.0091262e-08
5.00871e-08
5.0082903e-08
5.0078638e-08
5.0074327e-08
5.0069962e-08
5.0065613e-08
5.0061293e-08
5.0056951e-08
5.0052283e-08
5.0047223e-08
5.0041918e-08
5.003649e-08
5.0030989e-08
5.002544e-08
5.001979e-08
5.0014079e-08
5.0008202e-08
5.0002037e-08
4.9995636e-08
4.9988986e-08
4.9981977e-08
4.9974647e-08
4.9966966e-08
4.9958919e-08
4.9950412e-08
4.9941083e-08
4.9931411e-08
4.9921378e-08
4.9909964e-08
1.282711e-08
4.4554652e-08
5.31989e-08
5.3837207e-08
5.3744698e-08
5.3709466e-08
5.3699766e-08
5.3692935e-08
5.3685899e-08
5.3679143e-08
5.3672726e-08
5.3666572e-08
5.366057e-08
5.3654804e-08
5.364952e-08
5.3645695e-08
5.3641658e-08
5.3636349e-08
5.3630811e-08
5.3625628e-08
5.3620851e-08
5.3616342e-08
5.3611992e-08
5.3607758e-08
5.360361e-08
5.3599548e-08
5.359556e-08
5.3591648e-08
5.3587801e-08
5.3584021e-08
5.3580295e-08
5.3576628e-08
5.3573005e-08
5.3569433e-08
5.3565896e-08
5.3562401e-08
5.3558933e-08
5.35555e-08
5.3552085e-08
5.3548699e-08
5.3545323e-08
5.3541969e-08
5.3538614e-08
5.3535278e-08
5.3531934e-08
5.3528601e-08
5.3525254e-08
5.352191e-08
5.3518543e-08
5.3515172e-08
5.351177e-08
5.3508355e-08
5.3504899e-08
5.3501421e-08
5.3497889e-08
5.3494325e-08
5.3490718e-08
5.3487133e-08
5.3483592e-08
5.3480103e-08
5.3476419e-08
5.3472241e-08
5.3467762e-08
5.3463166e-08
5.3458543e-08
5.345392e-08
5.344922e-08
5.3444518e-08
5.3439729e-08
5.3434683e-08
5.3429418e-08
5.3423962e-08
5.3418197e-08
5.3412174e-08
5.3405843e-08
5.3399239e-08
5.3392281e-08
5.3384663e-08
5.3376529e-08
5.3368388e-08
5.3359095e-08
2.5618777e-08
5.3139057e-08
5.7511248e-08
5.7589934e-08
5.7531007e-08
5.7517811e-08
5.7512304e-08
5.7506896e-08
5.7501613e-08
5.7496581e-08
5.7491823e-08
5.7487207e-08
5.7482651e-08
5.747834e-08
5.7474553e-08
5.7472283e-08
5.7469561e-08
5.7465172e-08
5.7460649e-08
5.7456698e-08
5.745316e-08
5.7449823e-08
5.744659e-08
5.7443439e-08
5.7440358e-08
5.7437347e-08
5.7434395e-08
5.7431508e-08
5.7428672e-08
5.7425895e-08
5.7423162e-08
5.7420482e-08
5.741784e-08
5.7415244e-08
5.7412678e-08
5.7410154e-08
5.7407653e-08
5.740519e-08
5.7402744e-08
5.740033e-08
5.7397928e-08
5.7395554e-08
5.7393185e-08
5.7390842e-08
5.7388497e-08
5.7386173e-08
5.7383843e-08
5.7381528e-08
5.73792e-08
5.7376883e-08
5.7374547e-08
5.7372216e-08
5.7369859e-08
5.7367501e-08
5.7365108e-08
5.7362708e-08
5.7360279e-08
5.7357888e-08
5.735555e-08
5.7353313e-08
5.7351024e-08
5.7348281e-08
5.734513e-08
5.7341876e-08
5.733866e-08
5.7335498e-08
5.7332293e-08
5.7329133e-08
5.7326002e-08
5.7322678e-08
5.7319173e-08
5.7315533e-08
5.7311694e-08
5.7307702e-08
5.7303451e-08
5.7299077e-08
5.7294465e-08
5.72895e-08
5.7283822e-08
5.7278535e-08
5.727245e-08
4.7167391e-08
6.0717299e-08
6.1850926e-08
6.1821191e-08
6.1808616e-08
6.1805105e-08
6.1802701e-08
6.1799968e-08
6.1797491e-08
6.1795085e-08
6.1792847e-08
6.1790595e-08
6.1788378e-08
6.1786317e-08
6.1784645e-08
6.1784036e-08
6.1783063e-08
6.1780407e-08
6.1777866e-08
6.1775965e-08
6.1774319e-08
6.1772745e-08
6.1771222e-08
6.1769737e-08
6.1768298e-08
6.1766896e-08
6.1765532e-08
6.1764206e-08
6.1762916e-08
6.1761662e-08
6.1760441e-08
6.1759254e-08
6.1758096e-08
6.175697e-08
6.175587e-08
6.1754801e-08
6.1753754e-08
6.1752737e-08
6.175174e-08
6.1750771e-08
6.1749819e-08
6.1748895e-08
6.1747984e-08
6.1747102e-08
6.174623e-08
6.1745384e-08
6.1744545e-08
6.1743732e-08
6.1742921e-08
6.1742137e-08
6.174135e-08
6.1740589e-08
6.1739823e-08
6.173908e-08
6.1738327e-08
6.1737598e-08
6.1736862e-08
6.1736184e-08
6.1735556e-08
6.1735037e-08
6.1734563e-08
6.173389e-08
6.17328e-08
6.1731671e-08
6.1730606e-08
6.1729643e-08
6.1728657e-08
6.1727763e-08
6.1726914e-08
6.1726058e-08
6.1725078e-08
6.1724049e-08
6.1722965e-08
6.1721894e-08
6.1720655e-08
6.1719451e-08
6.1718124e-08
6.1716778e-08
6.1714904e-08
6.1713552e-08
6.1711768e-08
1.4169296e-08
1.4169311e-08
1.4169883e-08
1.4169829e-08
1.4169986e-08
1.4170061e-08
1.4170174e-08
1.4170278e-08
1.4170388e-08
1.4170498e-08
1.4170609e-08
1.4170721e-08
1.4170835e-08
1.417095e-08
1.4171065e-08
1.417118e-08
1.4171296e-08
1.4171411e-08
1.4171528e-08
1.4171644e-08
1.4171761e-08
1.4171878e-08
1.4171993e-08
1.4172106e-08
1.4172217e-08
1.4172323e-08
1.4172425e-08
1.4172522e-08
1.4172615e-08
1.4172701e-08
1.4172783e-08
1.4172856e-08
1.4172923e-08
1.4172982e-08
1.4173035e-08
1.4173079e-08
1.4173117e-08
1.4173146e-08
1.4173169e-08
1.4173181e-08
1.4173186e-08
1.417318e-08
1.4173167e-08
1.4173143e-08
1.4173113e-08
1.4173075e-08
1.4173031e-08
1.4172981e-08
1.4172928e-08
1.417287e-08
1.4172808e-08
1.4172738e-08
1.4172656e-08
1.4172559e-08
1.4172445e-08
1.4172317e-08
1.4172187e-08
1.4172089e-08
1.4172093e-08
1.4172323e-08
1.4172938e-08
1.4173966e-08
1.4174847e-08
1.4173398e-08
1.4163936e-08
1.4134365e-08
1.4062401e-08
1.3911694e-08
1.3629362e-08
1.3147163e-08
1.2388833e-08
1.1286002e-08
9.8041311e-09
7.9764935e-09
5.9347496e-09
3.9104814e-09
2.1832118e-09
9.9182913e-10
4.9359268e-10
8.2353236e-10
5.6696693e-09
1.4354255e-08
1.4354279e-08
1.4354698e-08
1.4354692e-08
1.4354829e-08
1.4354914e-08
1.4355026e-08
1.4355133e-08
1.4355245e-08
1.4355357e-08
1.435547e-08
1.4355584e-08
1.43557e-08
1.4355816e-08
1.4355933e-08
1.4356049e-08
1.4356166e-08
1.4356282e-08
1.4356399e-08
1.4356516e-08
1.4356634e-08
1.4356751e-08
1.4356868e-08
1.4356982e-08
1.4357094e-08
1.4357201e-08
1.4357305e-08
1.4357404e-08
1.4357498e-08
1.4357585e-08
1.4357666e-08
1.435774e-08
1.4357807e-08
1.4357865e-08
1.4357918e-08
1.4357962e-08
1.4357999e-08
1.4358028e-08
1.4358049e-08
1.4358061e-08
1.4358064e-08
1.4358058e-08
1.4358043e-08
1.4358019e-08
1.4357988e-08
1.4357949e-08
1.4357904e-08
1.4357853e-08
1.4357799e-08
1.435774e-08
1.4357677e-08
1.4357606e-08
1.4357524e-08
1.4357426e-08
1.4357311e-08
1.4357182e-08
1.4357052e-08
1.4356951e-08
1.435695e-08
1.4357168e-08
1.4357759e-08
1.4358774e-08
1.435974e-08
1.4358717e-08
1.4350549e-08
1.4324075e-08
1.4258405e-08
1.4118868e-08
1.3854048e-08
1.3396066e-08
1.2666795e-08
1.1592706e-08
1.0130362e-08
8.3015274e-09
6.2278873e-09
4.1396444e-09
2.3284265e-09
1.0546659e-09
4.98238e-10
7.2598217e-10
4.9078596e-09
1.4551098e-08
1.4551104e-08
1.4551485e-08
1.4551489e-08
1.4551623e-08
1.4551713e-08
1.4551827e-08
1.4551937e-08
1.4552051e-08
1.4552165e-08
1.4552281e-08
1.4552397e-08
1.4552515e-08
1.4552632e-08
1.4552751e-08
1.4552868e-08
1.4552986e-08
1.4553104e-08
1.4553222e-08
1.455334e-08
1.4553459e-08
1.4553577e-08
1.4553696e-08
1.4553811e-08
1.4553925e-08
1.4554034e-08
1.4554139e-08
1.4554239e-08
1.4554334e-08
1.4554422e-08
1.4554504e-08
1.4554578e-08
1.4554645e-08
1.4554704e-08
1.4554756e-08
1.4554801e-08
1.4554838e-08
1.4554868e-08
1.4554889e-08
1.4554901e-08
1.4554905e-08
1.45549e-08
1.4554886e-08
1.4554862e-08
1.4554831e-08
1.4554792e-08
1.4554747e-08
1.4554697e-08
1.4554642e-08
1.4554583e-08
1.455452e-08
1.455445e-08
1.455437e-08
1.4554274e-08
1.4554161e-08
1.4554032e-08
1.4553897e-08
1.4553779e-08
1.4553738e-08
1.4553882e-08
1.4554377e-08
1.4555357e-08
1.4556597e-08
1.4556715e-08
1.4551593e-08
1.4531721e-08
1.4478435e-08
1.435951e-08
1.4125384e-08
1.3708187e-08
1.3026458e-08
1.1998702e-08
1.0568535e-08
8.741698e-09
6.62661e-09
4.4524482e-09
2.5282796e-09
1.1436699e-09
5.0937877e-10
6.4595711e-10
4.2913751e-09
1.4760916e-08
1.4760925e-08
1.476126e-08
1.4761277e-08
1.4761407e-08
1.4761503e-08
1.4761619e-08
1.4761731e-08
1.4761848e-08
1.4761963e-08
1.4762081e-08
1.4762199e-08
1.4762319e-08
1.4762438e-08
1.4762557e-08
1.4762676e-08
1.4762795e-08
1.4762914e-08
1.4763033e-08
1.4763152e-08
1.4763272e-08
1.4763392e-08
1.4763511e-08
1.4763628e-08
1.4763743e-08
1.4763854e-08
1.4763961e-08
1.4764062e-08
1.4764158e-08
1.4764247e-08
1.4764329e-08
1.4764404e-08
1.4764471e-08
1.476453e-08
1.4764583e-08
1.4764627e-08
1.4764665e-08
1.4764694e-08
1.4764716e-08
1.4764729e-08
1.4764733e-08
1.4764728e-08
1.4764714e-08
1.4764691e-08
1.476466e-08
1.4764621e-08
1.4764576e-08
1.4764525e-08
1.476447e-08
1.4764411e-08
1.4764348e-08
1.4764279e-08
1.47642e-08
1.4764105e-08
1.4763994e-08
1.4763866e-08
1.4763728e-08
1.4763601e-08
1.4763533e-08
1.4763622e-08
1.476403e-08
1.4764928e-08
1.4766248e-08
1.4767015e-08
1.4763936e-08
1.4748925e-08
1.4705398e-08
1.4603633e-08
1.4396316e-08
1.4016374e-08
1.3380092e-08
1.2399108e-08
1.1004724e-08
9.1861432e-09
7.0363261e-09
4.7802007e-09
2.7425209e-09
1.2429047e-09
5.2387823e-10
5.7696667e-10
3.7400808e-09
1.4984853e-08
1.4984869e-08
1.4985166e-08
1.4985195e-08
1.4985322e-08
1.4985423e-08
1.4985541e-08
1.4985655e-08
1.4985774e-08
1.4985891e-08
1.4986011e-08
1.4986131e-08
1.4986252e-08
1.4986373e-08
1.4986494e-08
1.4986614e-08
1.4986734e-08
1.4986854e-08
1.4986974e-08
1.4987095e-08
1.4987216e-08
1.4987337e-08
1.4987458e-08
1.4987577e-08
1.4987693e-08
1.4987805e-08
1.4987914e-08
1.4988016e-08
1.4988113e-08
1.4988203e-08
1.4988286e-08
1.4988361e-08
1.4988428e-08
1.4988488e-08
1.498854e-08
1.4988585e-08
1.4988623e-08
1.4988653e-08
1.4988675e-08
1.4988688e-08
1.4988693e-08
1.4988688e-08
1.4988674e-08
1.4988651e-08
1.4988621e-08
1.4988582e-08
1.4988537e-08
1.4988486e-08
1.498843e-08
1.4988371e-08
1.4988309e-08
1.498824e-08
1.4988162e-08
1.498807e-08
1.498796e-08
1.4987833e-08
1.4987693e-08
1.4987558e-08
1.4987465e-08
1.49875e-08
1.4987817e-08
1.4988614e-08
1.4989958e-08
1.4991241e-08
1.4989957e-08
1.4979422e-08
1.4945171e-08
1.4860162e-08
1.4679685e-08
1.4337977e-08
1.3749628e-08
1.281973e-08
1.1466993e-08