/*--------------------------------*- C++ -*----------------------------------*\
| =========                 |                                                 |
| \\      /  F ield         | OpenFOAM: The Open Source CFD Toolbox           |
|  \\    /   O peration     | Version:  v2006                                 |
|   \\  /    A nd           | Website:  www.openfoam.com                      |
|    \\/     M anipulation  |                                                 |
\*---------------------------------------------------------------------------*/
FoamFile
{
    version     2.0;
    format      ascii;
    class       volScalarField;
    location    "6000";
    object      nut;
}
// * * * * * * * * * * * * * * * * * * * * * * * * * * * * * * * * * * * * * //

dimensions      [0 2 -1 0 0 0 0];


internalField   nonuniform List<scalar> 
102907
(
2.8398144e-11
2.6407748e-10
4.1039578e-09
2.0392063e-08
4.7762698e-08
7.1554576e-08
8.5019397e-08
9.0802348e-08
9.2749148e-08
9.3185659e-08
9.317034e-08
9.3086115e-08
9.3029453e-08
9.3003761e-08
9.2995355e-08
9.2994782e-08
9.299616e-08
9.2997008e-08
9.2997121e-08
9.2996958e-08
9.2997011e-08
9.299726e-08
9.2997541e-08
9.2997622e-08
9.2997476e-08
9.2997233e-08
9.2997027e-08
9.2996899e-08
9.2996853e-08
9.2996831e-08
9.2996801e-08
9.2996748e-08
9.2996687e-08
9.2996615e-08
9.299653e-08
9.299645e-08
9.299636e-08
9.2996278e-08
9.2996177e-08
9.2996042e-08
9.2995907e-08
9.2995753e-08
9.2995595e-08
9.2995423e-08
9.2995249e-08
9.299506e-08
9.2994862e-08
9.2994654e-08
9.299445e-08
9.2994243e-08
9.2994035e-08
9.2993828e-08
9.2993623e-08
9.2993418e-08
9.2993202e-08
9.2992964e-08
9.2992688e-08
9.299237e-08
9.2992e-08
9.299159e-08
9.2991146e-08
9.2990688e-08
9.2990221e-08
9.2989762e-08
9.2989311e-08
9.2988875e-08
9.2988438e-08
9.2988004e-08
9.2987558e-08
9.2987111e-08
9.2986648e-08
9.2986182e-08
9.2985697e-08
9.2985211e-08
9.2984709e-08
9.2984217e-08
9.2983709e-08
9.29832e-08
9.2982648e-08
9.2982055e-08
9.2981427e-08
2.9505887e-11
3.3526961e-10
5.1939767e-09
2.4284804e-08
5.3319972e-08
7.6074606e-08
8.7779682e-08
9.2319849e-08
9.3659311e-08
9.3861988e-08
9.3785722e-08
9.3700421e-08
9.3654061e-08
9.3635714e-08
9.363082e-08
9.3631699e-08
9.3632694e-08
9.3632817e-08
9.3632498e-08
9.3632082e-08
9.3631827e-08
9.3631772e-08
9.3631677e-08
9.3631371e-08
9.3630908e-08
9.3630391e-08
9.3629918e-08
9.3629535e-08
9.3629216e-08
9.3628915e-08
9.3628603e-08
9.3628287e-08
9.3627959e-08
9.3627622e-08
9.3627269e-08
9.3626929e-08
9.3626573e-08
9.3626233e-08
9.3625874e-08
9.362549e-08
9.3625096e-08
9.3624692e-08
9.3624271e-08
9.3623847e-08
9.3623408e-08
9.3622968e-08
9.3622509e-08
9.362205e-08
9.3621575e-08
9.3621109e-08
9.3620627e-08
9.3620156e-08
9.3619671e-08
9.3619198e-08
9.3618701e-08
9.3618192e-08
9.3617633e-08
9.3617034e-08
9.3616365e-08
9.3615654e-08
9.3614891e-08
9.3614113e-08
9.3613312e-08
9.3612516e-08
9.3611709e-08
9.3610912e-08
9.3610098e-08
9.3609283e-08
9.3608438e-08
9.3607582e-08
9.3606688e-08
9.3605778e-08
9.3604824e-08
9.3603847e-08
9.3602822e-08
9.3601783e-08
9.3600692e-08
9.3599572e-08
9.3598361e-08
9.3597062e-08
9.3595659e-08
3.1079001e-11
4.2510804e-10
6.5041532e-09
2.8557442e-08
5.8834746e-08
8.0186894e-08
9.0117663e-08
9.3624641e-08
9.4483871e-08
9.4523052e-08
9.441652e-08
9.4339115e-08
9.4303458e-08
9.4290899e-08
9.4289511e-08
9.4290446e-08
9.4290673e-08
9.4290296e-08
9.4289655e-08
9.4288944e-08
9.4288391e-08
9.428799e-08
9.4287516e-08
9.4286875e-08
9.4286102e-08
9.4285317e-08
9.4284587e-08
9.4283957e-08
9.4283369e-08
9.4282799e-08
9.4282205e-08
9.4281624e-08
9.428102e-08
9.4280437e-08
9.4279827e-08
9.4279247e-08
9.427863e-08
9.4278042e-08
9.4277419e-08
9.4276789e-08
9.4276145e-08
9.4275498e-08
9.4274829e-08
9.4274162e-08
9.4273476e-08
9.427279e-08
9.4272077e-08
9.4271363e-08
9.4270628e-08
9.4269904e-08
9.4269158e-08
9.4268422e-08
9.4267674e-08
9.4266936e-08
9.4266177e-08
9.4265404e-08
9.426458e-08
9.4263706e-08
9.4262757e-08
9.4261752e-08
9.4260684e-08
9.4259588e-08
9.4258459e-08
9.4257329e-08
9.4256177e-08
9.4255029e-08
9.4253857e-08
9.4252671e-08
9.4251444e-08
9.4250191e-08
9.4248889e-08
9.4247547e-08
9.4246141e-08
9.4244683e-08
9.4243159e-08
9.4241588e-08
9.4239943e-08
9.4238229e-08
9.4236388e-08
9.4234401e-08
9.423226e-08
3.331878e-11
5.4175759e-10
8.1264166e-09
3.3350276e-08
6.4387177e-08
8.4002153e-08
9.2203238e-08
9.4772798e-08
9.5252096e-08
9.5184788e-08
9.5070654e-08
9.5006328e-08
9.49803e-08
9.4973229e-08
9.4973674e-08
9.4974003e-08
9.497353e-08
9.497278e-08
9.497184e-08
9.4970836e-08
9.4969973e-08
9.4969229e-08
9.4968397e-08
9.4967425e-08
9.4966365e-08
9.4965325e-08
9.4964355e-08
9.4963481e-08
9.4962638e-08
9.4961807e-08
9.4960953e-08
9.4960113e-08
9.4959259e-08
9.4958425e-08
9.4957574e-08
9.4956749e-08
9.4955893e-08
9.495506e-08
9.4954195e-08
9.4953324e-08
9.495244e-08
9.4951552e-08
9.4950651e-08
9.4949747e-08
9.4948827e-08
9.49479e-08
9.4946954e-08
9.4945994e-08
9.4945015e-08
9.494403e-08
9.4943042e-08
9.4942049e-08
9.4941058e-08
9.494006e-08
9.4939057e-08
9.4938024e-08
9.4936951e-08
9.493581e-08
9.4934598e-08
9.4933304e-08
9.4931948e-08
9.4930538e-08
9.4929098e-08
9.4927639e-08
9.492617e-08
9.4924685e-08
9.4923179e-08
9.4921634e-08
9.4920048e-08
9.4918406e-08
9.4916712e-08
9.491495e-08
9.4913118e-08
9.4911202e-08
9.4909202e-08
9.4907118e-08
9.4904941e-08
9.4902656e-08
9.4900213e-08
9.4897571e-08
9.4894721e-08
3.6432319e-11
6.9359474e-10
1.0113609e-08
3.8615383e-08
6.9838183e-08
8.7457243e-08
9.4008728e-08
9.5789128e-08
9.5986677e-08
9.5860248e-08
9.5753641e-08
9.5703881e-08
9.5685823e-08
9.568367e-08
9.5684168e-08
9.5683665e-08
9.5682676e-08
9.5681638e-08
9.5680411e-08
9.5679112e-08
9.567794e-08
9.5676851e-08
9.5675676e-08
9.5674399e-08
9.5673073e-08
9.5671792e-08
9.5670591e-08
9.5669477e-08
9.5668387e-08
9.5667306e-08
9.5666211e-08
9.5665126e-08
9.5664034e-08
9.5662958e-08
9.5661871e-08
9.566081e-08
9.5659726e-08
9.5658664e-08
9.5657568e-08
9.5656476e-08
9.5655361e-08
9.565424e-08
9.5653111e-08
9.5651976e-08
9.565083e-08
9.5649671e-08
9.5648501e-08
9.564731e-08
9.5646107e-08
9.5644885e-08
9.5643665e-08
9.5642427e-08
9.5641197e-08
9.5639953e-08
9.563871e-08
9.5637433e-08
9.563612e-08
9.5634727e-08
9.5633259e-08
9.5631695e-08
9.5630061e-08
9.562836e-08
9.5626628e-08
9.5624865e-08
9.5623091e-08
9.5621287e-08
9.5619458e-08
9.5617573e-08
9.5615638e-08
9.561363e-08
9.561156e-08
9.5609404e-08
9.5607164e-08
9.5604818e-08
9.5602363e-08
9.5599793e-08
9.5597107e-08
9.5594286e-08
9.5591271e-08
9.5588012e-08
9.5584485e-08
4.0717566e-11
8.9324699e-10
1.2537286e-08
4.432417e-08
7.5107253e-08
9.0519694e-08
9.5575697e-08
9.6709418e-08
9.6709354e-08
9.6559506e-08
9.6469526e-08
9.6432802e-08
9.6422894e-08
9.6422951e-08
9.64227e-08
9.6421434e-08
9.6420109e-08
9.6418822e-08
9.6417308e-08
9.6415709e-08
9.6414231e-08
9.6412808e-08
9.641132e-08
9.6409763e-08
9.6408196e-08
9.6406687e-08
9.6405266e-08
9.6403918e-08
9.6402591e-08
9.640127e-08
9.6399946e-08
9.6398634e-08
9.6397319e-08
9.6396017e-08
9.6394708e-08
9.6393422e-08
9.6392116e-08
9.6390837e-08
9.6389526e-08
9.6388229e-08
9.6386901e-08
9.6385561e-08
9.6384216e-08
9.6382863e-08
9.6381502e-08
9.6380126e-08
9.6378742e-08
9.6377337e-08
9.637592e-08
9.6374481e-08
9.6373035e-08
9.6371573e-08
9.6370109e-08
9.6368636e-08
9.6367158e-08
9.6365657e-08
9.6364111e-08
9.6362492e-08
9.6360781e-08
9.6358972e-08
9.6357076e-08
9.635511e-08
9.6353098e-08
9.6351052e-08
9.6348984e-08
9.6346883e-08
9.6344743e-08
9.6342543e-08
9.6340275e-08
9.6337929e-08
9.63355e-08
9.633298e-08
9.6330354e-08
9.6327609e-08
9.6324724e-08
9.63217e-08
9.6318532e-08
9.631521e-08
9.6311659e-08
9.6307821e-08
9.6303657e-08
4.6584091e-11
1.1597774e-09
1.5473387e-08
5.0413094e-08
8.0110332e-08
9.3059609e-08
9.6938759e-08
9.7561758e-08
9.7437922e-08
9.7291159e-08
9.7221086e-08
9.7195721e-08
9.7192249e-08
9.7192501e-08
9.7191304e-08
9.718948e-08
9.7187932e-08
9.7186411e-08
9.7184601e-08
9.7182708e-08
9.7180919e-08
9.7179185e-08
9.7177411e-08
9.7175609e-08
9.7173819e-08
9.7172104e-08
9.717047e-08
9.7168901e-08
9.7167345e-08
9.7165802e-08
9.7164259e-08
9.7162737e-08
9.7161211e-08
9.7159706e-08
9.7158188e-08
9.7156696e-08
9.7155181e-08
9.7153698e-08
9.715218e-08
9.7150692e-08
9.7149165e-08
9.7147631e-08
9.7146084e-08
9.7144533e-08
9.714297e-08
9.7141396e-08
9.7139807e-08
9.7138204e-08
9.7136581e-08
9.7134944e-08
9.7133285e-08
9.7131617e-08
9.7129931e-08
9.7128246e-08
9.7126547e-08
9.7124841e-08
9.7123084e-08
9.7121262e-08
9.7119331e-08
9.71173e-08
9.711516e-08
9.7112948e-08
9.7110672e-08
9.7108362e-08
9.7106015e-08
9.710364e-08
9.710121e-08
9.709872e-08
9.7096143e-08
9.7093485e-08
9.7090724e-08
9.7087869e-08
9.7084886e-08
9.7081774e-08
9.7078492e-08
9.707505e-08
9.7071432e-08
9.7067644e-08
9.7063599e-08
9.7059227e-08
9.7054471e-08
5.4612864e-11
1.5228568e-09
1.9001135e-08
5.679448e-08
8.4769318e-08
9.5399248e-08
9.8123962e-08
9.8370134e-08
9.8189207e-08
9.8061323e-08
9.8009681e-08
9.7995313e-08
9.7994953e-08
9.7994384e-08
9.7992331e-08
9.7990165e-08
9.7988464e-08
9.7986707e-08
9.7984608e-08
9.798242e-08
9.7980334e-08
9.7978313e-08
9.797629e-08
9.797427e-08
9.7972283e-08
9.7970377e-08
9.7968547e-08
9.796677e-08
9.7965002e-08
9.7963254e-08
9.796151e-08
9.7959792e-08
9.7958073e-08
9.795638e-08
9.7954674e-08
9.7952993e-08
9.7951289e-08
9.7949618e-08
9.794791e-08
9.7946241e-08
9.7944529e-08
9.7942818e-08
9.7941093e-08
9.7939363e-08
9.7937617e-08
9.7935863e-08
9.7934087e-08
9.7932301e-08
9.7930489e-08
9.7928668e-08
9.7926816e-08
9.7924956e-08
9.7923071e-08
9.7921189e-08
9.7919294e-08
9.7917399e-08
9.7915459e-08
9.7913454e-08
9.7911332e-08
9.7909096e-08
9.7906738e-08
9.7904295e-08
9.7901778e-08
9.7899223e-08
9.7896623e-08
9.7893993e-08
9.7891302e-08
9.7888547e-08
9.7885694e-08
9.7882754e-08
9.7879698e-08
9.7876537e-08
9.7873233e-08
9.7869784e-08
9.7866145e-08
9.7862321e-08
9.7858292e-08
9.7854079e-08
9.7849588e-08
9.7844732e-08
9.7839436e-08
6.5590496e-11
2.0270579e-09
2.3195976e-08
6.3356039e-08
8.9036372e-08
9.7409764e-08
9.9178499e-08
9.9171189e-08
9.8975119e-08
9.8873835e-08
9.883814e-08
9.8832646e-08
9.8832736e-08
9.8831138e-08
9.8828446e-08
9.8826109e-08
9.8824283e-08
9.8822293e-08
9.8819912e-08
9.8817443e-08
9.881508e-08
9.8812807e-08
9.8810565e-08
9.8808352e-08
9.8806186e-08
9.8804109e-08
9.88021e-08
9.8800134e-08
9.8798178e-08
9.8796245e-08
9.879432e-08
9.8792424e-08
9.8790532e-08
9.8788667e-08
9.8786793e-08
9.8784944e-08
9.8783075e-08
9.8781235e-08
9.877936e-08
9.8777527e-08
9.8775647e-08
9.8773774e-08
9.8771892e-08
9.8770001e-08
9.8768096e-08
9.8766181e-08
9.8764243e-08
9.8762291e-08
9.8760314e-08
9.8758323e-08
9.8756304e-08
9.875427e-08
9.8752214e-08
9.8750152e-08
9.8748085e-08
9.8746019e-08
9.8743922e-08
9.8741756e-08
9.8739473e-08
9.8737057e-08
9.8734507e-08
9.8731856e-08
9.8729124e-08
9.8726345e-08
9.8723522e-08
9.8720664e-08
9.8717746e-08
9.8714759e-08
9.871167e-08
9.8708479e-08
9.8705163e-08
9.8701727e-08
9.8698138e-08
9.8694389e-08
9.8690436e-08
9.8686274e-08
9.8681883e-08
9.867729e-08
9.8672409e-08
9.8667128e-08
9.8661349e-08
8.0548387e-11
2.7262033e-09
2.8123125e-08
6.9965833e-08
9.2869763e-08
9.9136955e-08
1.0014974e-07
9.9986731e-08
9.9805227e-08
9.9730856e-08
9.9709916e-08
9.9708967e-08
9.9708216e-08
9.970569e-08
9.9702627e-08
9.9700207e-08
9.9698266e-08
9.9696053e-08
9.9693401e-08
9.9690676e-08
9.9688072e-08
9.9685589e-08
9.9683157e-08
9.9680774e-08
9.967845e-08
9.9676223e-08
9.9674053e-08
9.9671925e-08
9.9669804e-08
9.9667714e-08
9.966563e-08
9.9663581e-08
9.9661535e-08
9.9659521e-08
9.9657496e-08
9.9655505e-08
9.9653489e-08
9.9651511e-08
9.9649488e-08
9.964752e-08
9.9645488e-08
9.9643477e-08
9.9641454e-08
9.9639427e-08
9.9637382e-08
9.963533e-08
9.9633254e-08
9.9631164e-08
9.9629045e-08
9.9626912e-08
9.9624749e-08
9.962257e-08
9.9620363e-08
9.9618148e-08
9.9615924e-08
9.9613711e-08
9.9611479e-08
9.960919e-08
9.9606772e-08
9.960421e-08
9.9601494e-08
9.9598667e-08
9.9595746e-08
9.9592777e-08
9.9589761e-08
9.9586716e-08
9.9583605e-08
9.9580424e-08
9.957713e-08
9.9573728e-08
9.9570187e-08
9.9566518e-08
9.9562683e-08
9.9558683e-08
9.9554463e-08
9.9550017e-08
9.9545314e-08
9.9540397e-08
9.9535187e-08
9.9529551e-08
9.9523353e-08
1.0093684e-10
3.6616555e-09
3.3843489e-08
7.6478517e-08
9.6183943e-08
1.006273e-07
1.0107463e-07
1.0083592e-07
1.0068607e-07
1.0063528e-07
1.0062663e-07
1.0062641e-07
1.0062454e-07
1.0062136e-07
1.0061812e-07
1.0061567e-07
1.0061364e-07
1.0061121e-07
1.0060831e-07
1.0060536e-07
1.0060257e-07
1.0059992e-07
1.0059733e-07
1.005948e-07
1.0059234e-07
1.0058999e-07
1.0058768e-07
1.0058542e-07
1.0058316e-07
1.0058094e-07
1.0057873e-07
1.0057655e-07
1.0057438e-07
1.0057224e-07
1.0057009e-07
1.0056798e-07
1.0056584e-07
1.0056375e-07
1.0056161e-07
1.0055953e-07
1.0055738e-07
1.0055526e-07
1.0055312e-07
1.0055098e-07
1.0054882e-07
1.0054665e-07
1.0054447e-07
1.0054227e-07
1.0054004e-07
1.0053779e-07
1.0053552e-07
1.0053322e-07
1.0053089e-07
1.0052855e-07
1.0052619e-07
1.0052385e-07
1.0052152e-07
1.0051914e-07
1.0051663e-07
1.0051395e-07
1.0051111e-07
1.0050814e-07
1.0050507e-07
1.0050195e-07
1.0049878e-07
1.0049558e-07
1.0049231e-07
1.0048898e-07
1.0048552e-07
1.0048195e-07
1.0047823e-07
1.0047438e-07
1.0047035e-07
1.0046615e-07
1.0046172e-07
1.0045705e-07
1.0045209e-07
1.0044691e-07
1.0044145e-07
1.0043554e-07
1.0042899e-07
1.2916588e-10
4.9379628e-09
4.0434721e-08
8.2741751e-08
9.8545289e-08
1.0193547e-07
1.0198537e-07
1.0173171e-07
1.0162168e-07
1.0159114e-07
1.0158922e-07
1.0158824e-07
1.0158542e-07
1.0158189e-07
1.015786e-07
1.0157616e-07
1.0157406e-07
1.0157143e-07
1.015683e-07
1.0156518e-07
1.0156225e-07
1.0155948e-07
1.0155675e-07
1.0155411e-07
1.0155156e-07
1.0154911e-07
1.015467e-07
1.0154433e-07
1.0154197e-07
1.0153965e-07
1.0153734e-07
1.0153507e-07
1.015328e-07
1.0153057e-07
1.0152832e-07
1.0152613e-07
1.0152389e-07
1.0152172e-07
1.0151948e-07
1.0151732e-07
1.0151509e-07
1.0151289e-07
1.0151066e-07
1.0150843e-07
1.0150619e-07
1.0150395e-07
1.0150168e-07
1.014994e-07
1.0149709e-07
1.0149476e-07
1.014924e-07
1.0149002e-07
1.0148761e-07
1.0148517e-07
1.0148271e-07
1.0148028e-07
1.0147786e-07
1.0147544e-07
1.0147288e-07
1.0147014e-07
1.0146721e-07
1.0146414e-07
1.0146096e-07
1.0145772e-07
1.0145444e-07
1.0145113e-07
1.0144776e-07
1.0144431e-07
1.0144075e-07
1.0143706e-07
1.0143322e-07
1.0142924e-07
1.0142507e-07
1.0142072e-07
1.0141614e-07
1.0141132e-07
1.0140619e-07
1.0140082e-07
1.0139518e-07
1.0138909e-07
1.0138229e-07
1.6887341e-10
6.6744701e-09
4.7897717e-08
8.8608947e-08
1.0105597e-07
1.0307881e-07
1.0290251e-07
1.0268801e-07
1.0261508e-07
1.0260126e-07
1.0260068e-07
1.0259853e-07
1.025951e-07
1.0259144e-07
1.0258815e-07
1.025858e-07
1.0258368e-07
1.0258084e-07
1.0257752e-07
1.025743e-07
1.0257129e-07
1.0256842e-07
1.0256561e-07
1.025629e-07
1.0256029e-07
1.0255778e-07
1.0255529e-07
1.0255285e-07
1.0255042e-07
1.0254805e-07
1.0254567e-07
1.0254335e-07
1.0254101e-07
1.0253873e-07
1.0253642e-07
1.0253417e-07
1.0253188e-07
1.0252965e-07
1.0252736e-07
1.0252516e-07
1.0252286e-07
1.0252064e-07
1.0251835e-07
1.0251608e-07
1.0251379e-07
1.025115e-07
1.0250918e-07
1.0250685e-07
1.025045e-07
1.0250213e-07
1.0249973e-07
1.024973e-07
1.0249484e-07
1.0249235e-07
1.0248984e-07
1.0248733e-07
1.0248486e-07
1.0248245e-07
1.024799e-07
1.0247715e-07
1.0247418e-07
1.0247106e-07
1.0246781e-07
1.024645e-07
1.0246115e-07
1.0245779e-07
1.0245436e-07
1.0245087e-07
1.0244725e-07
1.0244351e-07
1.0243961e-07
1.0243555e-07
1.0243131e-07
1.0242689e-07
1.0242224e-07
1.0241735e-07
1.0241212e-07
1.0240665e-07
1.0240092e-07
1.0239476e-07
1.023878e-07
2.2597064e-10
9.037497e-09
5.6162468e-08
9.3954912e-08
1.0310098e-07
1.0414334e-07
1.0387634e-07
1.0371433e-07
1.0367031e-07
1.0366625e-07
1.0366516e-07
1.0366207e-07
1.0365834e-07
1.0365469e-07
1.0365146e-07
1.0364928e-07
1.0364721e-07
1.0364418e-07
1.0364071e-07
1.0363744e-07
1.036344e-07
1.0363148e-07
1.0362863e-07
1.0362591e-07
1.0362329e-07
1.0362075e-07
1.0361824e-07
1.0361577e-07
1.0361332e-07
1.0361092e-07
1.0360853e-07
1.0360618e-07
1.0360383e-07
1.0360154e-07
1.0359921e-07
1.0359695e-07
1.0359464e-07
1.035924e-07
1.035901e-07
1.0358788e-07
1.0358558e-07
1.0358335e-07
1.0358105e-07
1.0357879e-07
1.0357649e-07
1.0357419e-07
1.0357187e-07
1.0356954e-07
1.0356719e-07
1.0356482e-07
1.0356241e-07
1.0355999e-07
1.0355753e-07
1.0355504e-07
1.0355252e-07
1.0354998e-07
1.0354748e-07
1.0354513e-07
1.0354267e-07
1.0353996e-07
1.03537e-07
1.0353388e-07
1.0353062e-07
1.035273e-07
1.0352395e-07
1.0352059e-07
1.0351718e-07
1.035137e-07
1.035101e-07
1.0350637e-07
1.0350248e-07
1.0349844e-07
1.0349419e-07
1.0348978e-07
1.0348514e-07
1.0348027e-07
1.0347506e-07
1.0346957e-07
1.0346387e-07
1.0345777e-07
1.0345078e-07
3.1059286e-10
1.2253664e-08
6.4988434e-08
9.8715194e-08
1.0485984e-07
1.0519883e-07
1.04921e-07
1.0481237e-07
1.0479086e-07
1.0479015e-07
1.0478797e-07
1.0478431e-07
1.0478057e-07
1.0477702e-07
1.047739e-07
1.0477201e-07
1.0477005e-07
1.0476684e-07
1.0476328e-07
1.0476003e-07
1.0475698e-07
1.0475407e-07
1.0475125e-07
1.0474859e-07
1.0474601e-07
1.047435e-07
1.0474101e-07
1.0473857e-07
1.0473615e-07
1.0473378e-07
1.0473142e-07
1.047291e-07
1.0472679e-07
1.0472452e-07
1.0472223e-07
1.0472e-07
1.0471773e-07
1.0471553e-07
1.0471326e-07
1.0471108e-07
1.0470881e-07
1.0470663e-07
1.0470436e-07
1.0470216e-07
1.0469989e-07
1.0469765e-07
1.0469537e-07
1.0469309e-07
1.0469078e-07
1.0468847e-07
1.0468612e-07
1.0468375e-07
1.0468134e-07
1.0467891e-07
1.0467644e-07
1.0467394e-07
1.0467145e-07
1.0466915e-07
1.0466688e-07
1.046643e-07
1.0466143e-07
1.0465836e-07
1.0465515e-07
1.046519e-07
1.0464861e-07
1.0464533e-07
1.04642e-07
1.0463862e-07
1.0463511e-07
1.0463148e-07
1.0462769e-07
1.0462375e-07
1.0461959e-07
1.0461528e-07
1.0461075e-07
1.0460603e-07
1.0460094e-07
1.0459556e-07
1.0459001e-07
1.0458412e-07
1.0457724e-07
4.4075451e-10
1.6635262e-08
7.4216957e-08
1.0283946e-07
1.063806e-07
1.062845e-07
1.0604994e-07
1.0598644e-07
1.0597967e-07
1.0597844e-07
1.0597535e-07
1.059715e-07
1.0596795e-07
1.0596457e-07
1.0596162e-07
1.0596015e-07
1.0595839e-07
1.0595502e-07
1.0595149e-07
1.0594826e-07
1.0594525e-07
1.0594244e-07
1.0593975e-07
1.0593721e-07
1.0593473e-07
1.0593231e-07
1.0592991e-07
1.0592756e-07
1.0592523e-07
1.0592295e-07
1.0592068e-07
1.0591845e-07
1.0591622e-07
1.0591405e-07
1.0591185e-07
1.0590971e-07
1.0590753e-07
1.0590542e-07
1.0590325e-07
1.0590116e-07
1.0589898e-07
1.0589691e-07
1.0589473e-07
1.0589264e-07
1.0589046e-07
1.0588834e-07
1.0588615e-07
1.05884e-07
1.0588178e-07
1.0587959e-07
1.0587735e-07
1.058751e-07
1.0587281e-07
1.0587051e-07
1.0586815e-07
1.0586578e-07
1.0586338e-07
1.0586116e-07
1.0585906e-07
1.0585678e-07
1.0585407e-07
1.0585115e-07
1.0584806e-07
1.0584494e-07
1.058418e-07
1.0583869e-07
1.0583552e-07
1.0583233e-07
1.0582902e-07
1.0582558e-07
1.0582199e-07
1.0581825e-07
1.0581429e-07
1.058102e-07
1.058059e-07
1.0580144e-07
1.0579665e-07
1.057915e-07
1.0578625e-07
1.0578073e-07
1.0577415e-07
6.5105332e-10
2.2610241e-08
8.4105995e-08
1.0535593e-07
1.0773269e-07
1.074377e-07
1.0727139e-07
1.0724136e-07
1.0724015e-07
1.0723787e-07
1.0723447e-07
1.0723078e-07
1.0722753e-07
1.0722441e-07
1.072217e-07
1.0722081e-07
1.072193e-07
1.0721586e-07
1.0721238e-07
1.0720923e-07
1.0720639e-07
1.0720378e-07
1.0720133e-07
1.0719898e-07
1.0719668e-07
1.0719442e-07
1.0719219e-07
1.0719e-07
1.0718783e-07
1.071857e-07
1.0718359e-07
1.0718152e-07
1.0717945e-07
1.0717743e-07
1.0717539e-07
1.0717341e-07
1.071714e-07
1.0716944e-07
1.0716744e-07
1.071655e-07
1.071635e-07
1.0716158e-07
1.0715957e-07
1.0715765e-07
1.0715564e-07
1.071537e-07
1.0715168e-07
1.0714972e-07
1.0714768e-07
1.0714569e-07
1.0714361e-07
1.0714158e-07
1.0713946e-07
1.0713737e-07
1.071352e-07
1.0713304e-07
1.0713083e-07
1.0712877e-07
1.0712685e-07
1.0712497e-07
1.0712258e-07
1.0711988e-07
1.0711702e-07
1.0711412e-07
1.0711124e-07
1.0710838e-07
1.0710548e-07
1.0710257e-07
1.0709958e-07
1.0709644e-07
1.0709317e-07
1.0708978e-07
1.0708614e-07
1.070824e-07
1.0707848e-07
1.0707444e-07
1.0707011e-07
1.0706537e-07
1.0706059e-07
1.0705564e-07
1.0704957e-07
1.0452252e-09
3.0750815e-08
9.3234234e-08
1.0778362e-07
1.0894156e-07
1.0867296e-07
1.0858963e-07
1.0858112e-07
1.0857975e-07
1.0857666e-07
1.0857341e-07
1.0857012e-07
1.0856733e-07
1.085646e-07
1.0856219e-07
1.0856197e-07
1.0856079e-07
1.0855742e-07
1.0855404e-07
1.085511e-07
1.0854858e-07
1.0854631e-07
1.0854417e-07
1.085421e-07
1.0854005e-07
1.0853804e-07
1.0853606e-07
1.0853411e-07
1.0853219e-07
1.0853031e-07
1.0852844e-07
1.0852661e-07
1.0852478e-07
1.08523e-07
1.085212e-07
1.0851946e-07
1.0851769e-07
1.0851597e-07
1.0851421e-07
1.0851251e-07
1.0851077e-07
1.0850908e-07
1.0850733e-07
1.0850566e-07
1.085039e-07
1.0850222e-07
1.0850046e-07
1.0849876e-07
1.0849699e-07
1.0849526e-07
1.0849347e-07
1.0849171e-07
1.0848988e-07
1.0848808e-07
1.0848621e-07
1.0848435e-07
1.0848243e-07
1.0848064e-07
1.0847899e-07
1.0847749e-07
1.0847563e-07
1.0847328e-07
1.0847074e-07
1.0846819e-07
1.0846568e-07
1.084632e-07
1.0846067e-07
1.0845817e-07
1.0845564e-07
1.0845293e-07
1.0845014e-07
1.0844724e-07
1.0844408e-07
1.0844087e-07
1.084375e-07
1.0843404e-07
1.0843037e-07
1.0842627e-07
1.0842215e-07
1.08418e-07
1.0841273e-07
2.1285316e-09
4.1738706e-08
1.0161056e-07
1.0998129e-07
1.1020782e-07
1.1003871e-07
1.100101e-07
1.1000886e-07
1.1000659e-07
1.1000351e-07
1.1000081e-07
1.0999817e-07
1.0999604e-07
1.0999379e-07
1.0999168e-07
1.0999212e-07
1.0999139e-07
1.0998837e-07
1.0998522e-07
1.0998267e-07
1.0998062e-07
1.0997879e-07
1.0997704e-07
1.0997533e-07
1.0997364e-07
1.0997199e-07
1.0997036e-07
1.0996876e-07
1.0996719e-07
1.0996565e-07
1.0996413e-07
1.0996263e-07
1.0996115e-07
1.099597e-07
1.0995825e-07
1.0995683e-07
1.0995541e-07
1.0995402e-07
1.0995261e-07
1.0995124e-07
1.0994985e-07
1.0994849e-07
1.0994711e-07
1.0994576e-07
1.0994438e-07
1.0994303e-07
1.0994165e-07
1.099403e-07
1.0993891e-07
1.0993754e-07
1.0993614e-07
1.0993475e-07
1.0993333e-07
1.0993192e-07
1.0993046e-07
1.09929e-07
1.099275e-07
1.099261e-07
1.0992483e-07
1.0992378e-07
1.0992256e-07
1.0992075e-07
1.0991866e-07
1.0991657e-07
1.0991457e-07
1.0991264e-07
1.0991061e-07
1.0990864e-07
1.0990673e-07
1.0990465e-07
1.0990248e-07
1.0990026e-07
1.0989778e-07
1.0989529e-07
1.0989267e-07
1.0989e-07
1.0988718e-07
1.0988403e-07
1.0988077e-07
1.0987767e-07
1.0987356e-07
4.4274099e-09
5.7958191e-08
1.0878646e-07
1.1175546e-07
1.1160077e-07
1.1153433e-07
1.1153081e-07
1.1152997e-07
1.1152782e-07
1.1152552e-07
1.1152363e-07
1.1152189e-07
1.1152056e-07
1.1151891e-07
1.115171e-07
1.1151792e-07
1.1151788e-07
1.115156e-07
1.1151297e-07
1.1151105e-07
1.1150959e-07
1.1150829e-07
1.1150704e-07
1.1150582e-07
1.1150463e-07
1.1150347e-07
1.1150233e-07
1.1150121e-07
1.1150011e-07
1.1149904e-07
1.1149798e-07
1.1149695e-07
1.1149593e-07
1.1149494e-07
1.1149394e-07
1.1149298e-07
1.1149201e-07
1.1149106e-07
1.1149012e-07
1.1148919e-07
1.1148826e-07
1.1148736e-07
1.1148644e-07
1.1148555e-07
1.1148464e-07
1.1148375e-07
1.1148285e-07
1.1148197e-07
1.1148107e-07
1.1148019e-07
1.1147928e-07
1.114784e-07
1.1147748e-07
1.1147659e-07
1.1147566e-07
1.1147475e-07
1.114738e-07
1.1147293e-07
1.1147215e-07
1.1147161e-07
1.114711e-07
1.1147003e-07
1.1146853e-07
1.1146706e-07
1.1146577e-07
1.1146457e-07
1.1146321e-07
1.1146192e-07
1.1146079e-07
1.1145952e-07
1.1145817e-07
1.1145679e-07
1.1145522e-07
1.1145367e-07
1.1145201e-07
1.1145038e-07
1.1144865e-07
1.1144673e-07
1.114446e-07
1.1144283e-07
1.1144021e-07
8.4746194e-09
8.1624456e-08
1.1348471e-07
1.1331618e-07
1.1314942e-07
1.1314035e-07
1.1314139e-07
1.1314061e-07
1.131395e-07
1.1313844e-07
1.1313755e-07
1.1313685e-07
1.1313628e-07
1.131356e-07
1.131348e-07
1.1313528e-07
1.1313536e-07
1.1313416e-07
1.1313271e-07
1.1313183e-07
1.1313119e-07
1.1313061e-07
1.1313006e-07
1.1312951e-07
1.1312899e-07
1.1312847e-07
1.1312798e-07
1.1312749e-07
1.1312702e-07
1.1312656e-07
1.1312611e-07
1.1312568e-07
1.1312526e-07
1.1312485e-07
1.1312444e-07
1.1312406e-07
1.1312368e-07
1.1312331e-07
1.1312294e-07
1.1312259e-07
1.1312225e-07
1.1312192e-07
1.1312158e-07
1.1312127e-07
1.1312095e-07
1.1312065e-07
1.1312034e-07
1.1312006e-07
1.1311976e-07
1.1311948e-07
1.131192e-07
1.1311893e-07
1.1311865e-07
1.1311839e-07
1.1311812e-07
1.1311787e-07
1.1311759e-07
1.1311737e-07
1.1311718e-07
1.1311716e-07
1.1311724e-07
1.1311712e-07
1.1311655e-07
1.1311598e-07
1.1311556e-07
1.1311521e-07
1.1311474e-07
1.1311437e-07
1.131141e-07
1.1311384e-07
1.1311347e-07
1.1311307e-07
1.1311265e-07
1.1311229e-07
1.1311184e-07
1.1311144e-07
1.1311099e-07
1.131105e-07
1.1310984e-07
1.1310956e-07
1.1310875e-07
8.4264562e-08
8.4264626e-08
8.4266203e-08
8.4265974e-08
8.4266346e-08
8.4266468e-08
8.4266695e-08
8.426689e-08
8.4267099e-08
8.4267306e-08
8.4267516e-08
8.4267729e-08
8.4267946e-08
8.4268165e-08
8.426839e-08
8.4268617e-08
8.426885e-08
8.4269089e-08
8.4269337e-08
8.4269591e-08
8.4269857e-08
8.4270125e-08
8.4270399e-08
8.4270663e-08
8.4270923e-08
8.4271158e-08
8.4271381e-08
8.4271574e-08
8.4271755e-08
8.4271906e-08
8.4272052e-08
8.4272174e-08
8.4272298e-08
8.4272403e-08
8.4272515e-08
8.4272607e-08
8.4272703e-08
8.4272772e-08
8.4272833e-08
8.4272858e-08
8.427287e-08
8.4272846e-08
8.4272811e-08
8.4272746e-08
8.4272677e-08
8.4272588e-08
8.4272503e-08
8.4272413e-08
8.4272339e-08
8.4272269e-08
8.427221e-08
8.4272132e-08
8.4272023e-08
8.4271844e-08
8.4271587e-08
8.4271256e-08
8.4270946e-08
8.4270886e-08
8.4271622e-08
8.4274103e-08
8.4279525e-08
8.4288063e-08
8.4295248e-08
8.4283707e-08
8.4207566e-08
8.3966733e-08
8.3370206e-08
8.2092319e-08
7.9636437e-08
7.5339942e-08
6.8482987e-08
5.8581629e-08
4.5880184e-08
3.1796319e-08
1.873523e-08
8.948755e-09
3.2497106e-09
8.3137608e-10
1.9091562e-10
1.0504898e-10
1.3495302e-10
8.4483131e-08
8.4483146e-08
8.4484256e-08
8.4484169e-08
8.4484478e-08
8.4484625e-08
8.4484853e-08
8.4485052e-08
8.448527e-08
8.4485477e-08
8.4485696e-08
8.4485909e-08
8.4486134e-08
8.4486353e-08
8.4486582e-08
8.4486808e-08
8.4487044e-08
8.448728e-08
8.448753e-08
8.4487782e-08
8.4488048e-08
8.4488314e-08
8.4488587e-08
8.448885e-08
8.4489108e-08
8.4489343e-08
8.4489564e-08
8.4489757e-08
8.4489935e-08
8.4490087e-08
8.4490227e-08
8.4490349e-08
8.4490466e-08
8.4490571e-08
8.4490675e-08
8.4490767e-08
8.4490854e-08
8.4490924e-08
8.4490977e-08
8.4491004e-08
8.4491008e-08
8.4490984e-08
8.4490942e-08
8.4490878e-08
8.4490802e-08
8.4490715e-08
8.4490626e-08
8.4490537e-08
8.4490459e-08
8.4490389e-08
8.4490327e-08
8.449025e-08
8.4490138e-08
8.4489959e-08
8.4489701e-08
8.4489373e-08
8.4489062e-08
8.4488996e-08
8.4489692e-08
8.449206e-08
8.4497278e-08
8.4505681e-08
8.451353e-08
8.4505518e-08
8.4440397e-08
8.42268e-08
8.3687863e-08
8.251727e-08
8.0239075e-08
7.6201968e-08
6.9668316e-08
6.0083202e-08
4.75618e-08
3.3390512e-08
1.9958287e-08
9.6718397e-09
3.5553143e-09
9.0943204e-10
1.9863873e-10
9.5662539e-11
1.2166234e-10
8.4713249e-08
8.4713179e-08
8.4714168e-08
8.4714112e-08
8.4714411e-08
8.4714571e-08
8.4714802e-08
8.4715005e-08
8.4715228e-08
8.4715437e-08
8.471566e-08
8.4715874e-08
8.4716102e-08
8.4716321e-08
8.4716552e-08
8.4716776e-08
8.4717013e-08
8.4717246e-08
8.4717495e-08
8.4717745e-08
8.471801e-08
8.4718274e-08
8.4718547e-08
8.471881e-08
8.4719068e-08
8.4719304e-08
8.4719524e-08
8.4719718e-08
8.4719892e-08
8.4720044e-08
8.472018e-08
8.4720301e-08
8.4720413e-08
8.4720517e-08
8.4720616e-08
8.4720709e-08
8.4720793e-08
8.4720864e-08
8.4720916e-08
8.4720945e-08
8.4720949e-08
8.4720929e-08
8.4720886e-08
8.4720825e-08
8.4720749e-08
8.4720664e-08
8.4720573e-08
8.4720484e-08
8.4720402e-08
8.4720332e-08
8.4720268e-08
8.4720197e-08
8.4720094e-08
8.4719929e-08
8.4719684e-08
8.4719359e-08
8.4719014e-08
8.4718823e-08
8.4719212e-08
8.4721013e-08
8.4725478e-08
8.4733578e-08
8.4743512e-08
8.4744479e-08
8.4703992e-08
8.4545553e-08
8.4114335e-08
8.313191e-08
8.1149513e-08
7.7526732e-08
7.1493e-08
6.2383718e-08
5.0121894e-08
3.5801142e-08
2.1790754e-08
1.0740848e-08
4.0025498e-09
1.0249631e-09
2.1126581e-10
8.856574e-11
1.1087471e-10
8.495585e-08
8.4955776e-08
8.4956631e-08
8.4956611e-08
8.4956897e-08
8.4957071e-08
8.4957305e-08
8.4957512e-08
8.4957737e-08
8.4957949e-08
8.4958176e-08
8.4958391e-08
8.4958621e-08
8.495884e-08
8.4959071e-08
8.4959294e-08
8.495953e-08
8.4959763e-08
8.496001e-08
8.4960259e-08
8.4960523e-08
8.4960788e-08
8.496106e-08
8.4961324e-08
8.4961581e-08
8.4961818e-08
8.4962036e-08
8.496223e-08
8.4962402e-08
8.4962553e-08
8.4962685e-08
8.4962805e-08
8.4962914e-08
8.4963018e-08
8.4963114e-08
8.4963207e-08
8.496329e-08
8.4963362e-08
8.4963413e-08
8.4963444e-08
8.4963447e-08
8.4963429e-08
8.4963386e-08
8.4963327e-08
8.4963251e-08
8.4963167e-08
8.4963075e-08
8.4962985e-08
8.4962902e-08
8.4962829e-08
8.4962765e-08
8.4962697e-08
8.49626e-08
8.4962447e-08
8.4962213e-08
8.4961897e-08
8.4961541e-08
8.4961283e-08
8.4961476e-08
8.4962855e-08
8.4966634e-08
8.4974077e-08
8.4984595e-08
8.4990591e-08
8.4966398e-08
8.4847929e-08
8.4500034e-08
8.3671098e-08
8.1941742e-08
7.8690487e-08
7.3129603e-08
6.4505623e-08
5.2562179e-08
3.8183194e-08
2.3669279e-08
1.1875329e-08
4.4922908e-09
1.1558802e-09
2.258687e-10
8.2329724e-11
1.0079098e-10
8.5211812e-08
8.5211742e-08
8.5212494e-08
8.5212505e-08
8.5212783e-08
8.5212968e-08
8.5213203e-08
8.5213414e-08
8.5213642e-08
8.5213856e-08
8.5214085e-08
8.5214302e-08
8.5214533e-08
8.5214753e-08
8.5214984e-08
8.5215208e-08
8.5215443e-08
8.5215676e-08
8.5215924e-08
8.5216174e-08
8.5216438e-08
8.5216704e-08
8.5216977e-08
8.5217242e-08
8.5217498e-08
8.5217736e-08
8.5217954e-08
8.5218147e-08
8.5218317e-08
8.5218467e-08
8.5218597e-08
8.5218716e-08
8.5218823e-08
8.5218926e-08
8.5219022e-08
8.5219113e-08
8.5219195e-08
8.5219267e-08
8.5219319e-08
8.521935e-08
8.5219355e-08
8.5219336e-08
8.5219296e-08
8.5219237e-08
8.5219163e-08
8.5219078e-08
8.5218987e-08
8.5218896e-08
8.521881e-08
8.5218736e-08
8.5218672e-08
8.5218606e-08
8.5218517e-08
8.5218375e-08
8.5218155e-08
8.521785e-08
8.5217486e-08
8.521717e-08
8.5217183e-08
8.5218154e-08
8.5221229e-08
8.5227878e-08
8.5238532e-08
8.5248463e-08
8.5238345e-08
8.5155997e-08
8.4885734e-08
8.4203476e-08
8.2721875e-08
7.9844107e-08
7.4774387e-08
6.6679577e-08
5.5122452e-08