/*--------------------------------*- C++ -*----------------------------------*\
| =========                 |                                                 |
| \\      /  F ield         | OpenFOAM: The Open Source CFD Toolbox           |
|  \\    /   O peration     | Version:  v2006                                 |
|   \\  /    A nd           | Website:  www.openfoam.com                      |
|    \\/     M anipulation  |                                                 |
\*---------------------------------------------------------------------------*/
FoamFile
{
    version     2.0;
    format      ascii;
    class       volScalarField;
    location    "6000";
    object      nutMean;
}
// * * * * * * * * * * * * * * * * * * * * * * * * * * * * * * * * * * * * * //

dimensions      [0 2 -1 0 0 0 0];


internalField   nonuniform List<scalar> 
102907
(
3.4116163e-11
2.7226931e-10
4.1103293e-09
2.0395915e-08
4.7761536e-08
7.1549022e-08
8.5011872e-08
9.0794949e-08
9.274281e-08
9.3180486e-08
9.316594e-08
9.3082095e-08
9.3025582e-08
9.2999984e-08
9.2991727e-08
9.2991228e-08
9.2992474e-08
9.2993075e-08
9.2993298e-08
9.2993593e-08
9.2993882e-08
9.2994007e-08
9.2993919e-08
9.2993679e-08
9.2993389e-08
9.2993116e-08
9.2992898e-08
9.2992745e-08
9.2992635e-08
9.2992534e-08
9.2992427e-08
9.2992309e-08
9.2992185e-08
9.2992059e-08
9.2991936e-08
9.2991816e-08
9.2991696e-08
9.2991583e-08
9.2991463e-08
9.2991317e-08
9.2991171e-08
9.2991016e-08
9.2990853e-08
9.2990681e-08
9.2990506e-08
9.2990331e-08
9.2990159e-08
9.298999e-08
9.2989824e-08
9.2989656e-08
9.2989487e-08
9.2989312e-08
9.2989132e-08
9.2988944e-08
9.298877e-08
9.2988606e-08
9.2988432e-08
9.2988195e-08
9.2987861e-08
9.2987448e-08
9.2986989e-08
9.2986498e-08
9.298599e-08
9.2985476e-08
9.2984966e-08
9.2984462e-08
9.2983968e-08
9.2983482e-08
9.2983005e-08
9.2982532e-08
9.2982063e-08
9.2981591e-08
9.2981115e-08
9.2980638e-08
9.2980165e-08
9.2979704e-08
9.2979258e-08
9.2978834e-08
9.2978371e-08
9.2977805e-08
9.2977181e-08
3.5804838e-11
3.4482742e-10
5.201068e-09
2.4289374e-08
5.331921e-08
7.6069213e-08
8.7772271e-08
9.2312821e-08
9.3653389e-08
9.3857196e-08
9.378158e-08
9.3696563e-08
9.3650299e-08
9.363204e-08
9.3627337e-08
9.3628288e-08
9.3629013e-08
9.3628926e-08
9.3628781e-08
9.3628813e-08
9.3628785e-08
9.3628521e-08
9.3628046e-08
9.3627463e-08
9.3626861e-08
9.3626296e-08
9.3625799e-08
9.3625374e-08
9.3624994e-08
9.3624626e-08
9.3624256e-08
9.3623881e-08
9.3623504e-08
9.3623127e-08
9.3622751e-08
9.3622379e-08
9.3622005e-08
9.3621636e-08
9.3621262e-08
9.3620863e-08
9.3620461e-08
9.3620052e-08
9.3619632e-08
9.3619205e-08
9.3618771e-08
9.3618334e-08
9.3617896e-08
9.3617458e-08
9.3617017e-08
9.3616573e-08
9.3616125e-08
9.3615671e-08
9.3615212e-08
9.3614745e-08
9.361428e-08
9.3613846e-08
9.3613408e-08
9.3612907e-08
9.3612291e-08
9.3611585e-08
9.3610821e-08
9.3610012e-08
9.3609175e-08
9.360832e-08
9.360746e-08
9.3606596e-08
9.3605732e-08
9.3604862e-08
9.3603988e-08
9.3603104e-08
9.3602206e-08
9.3601286e-08
9.3600341e-08
9.359937e-08
9.3598374e-08
9.3597364e-08
9.3596337e-08
9.3595303e-08
9.3594194e-08
9.3592919e-08
9.3591516e-08
3.806256e-11
4.3625268e-10
6.5123951e-09
2.8562921e-08
5.8834303e-08
8.0181489e-08
9.0110547e-08
9.3617971e-08
9.4478375e-08
9.4518641e-08
9.4412634e-08
9.4335428e-08
9.4299822e-08
9.4287357e-08
9.4286188e-08
9.4287132e-08
9.4287079e-08
9.4286503e-08
9.4286088e-08
9.428582e-08
9.4285419e-08
9.428478e-08
9.4283957e-08
9.4283049e-08
9.4282147e-08
9.4281298e-08
9.4280528e-08
9.4279835e-08
9.4279189e-08
9.4278557e-08
9.4277929e-08
9.4277302e-08
9.4276674e-08
9.4276048e-08
9.4275424e-08
9.4274803e-08
9.4274181e-08
9.4273563e-08
9.4272939e-08
9.4272292e-08
9.4271644e-08
9.4270986e-08
9.4270319e-08
9.4269641e-08
9.4268957e-08
9.4268266e-08
9.4267572e-08
9.4266872e-08
9.4266167e-08
9.4265455e-08
9.426474e-08
9.4264018e-08
9.4263291e-08
9.4262558e-08
9.4261826e-08
9.4261113e-08
9.4260409e-08
9.425965e-08
9.425877e-08
9.4257779e-08
9.4256716e-08
9.4255596e-08
9.4254435e-08
9.4253248e-08
9.4252045e-08
9.4250831e-08
9.4249607e-08
9.4248368e-08
9.4247111e-08
9.4245829e-08
9.4244516e-08
9.4243165e-08
9.4241767e-08
9.4240319e-08
9.423882e-08
9.4237278e-08
9.423569e-08
9.4234069e-08
9.4232339e-08
9.4230384e-08
9.4228235e-08
4.1151291e-11
5.547753e-10
8.136217e-09
3.3356823e-08
6.4386897e-08
8.3996582e-08
9.219619e-08
9.4766498e-08
9.5247064e-08
9.51807e-08
9.5066998e-08
9.5002803e-08
9.4976791e-08
9.4969872e-08
9.4970497e-08
9.497079e-08
9.4970011e-08
9.4969079e-08
9.4968417e-08
9.496784e-08
9.4967081e-08
9.4966085e-08
9.4964924e-08
9.4963716e-08
9.4962531e-08
9.4961413e-08
9.4960382e-08
9.4959434e-08
9.4958529e-08
9.4957644e-08
9.4956764e-08
9.4955892e-08
9.4955019e-08
9.4954155e-08
9.4953289e-08
9.4952431e-08
9.4951566e-08
9.495071e-08
9.4949844e-08
9.4948962e-08
9.4948075e-08
9.4947179e-08
9.4946274e-08
9.4945359e-08
9.4944436e-08
9.4943504e-08
9.4942565e-08
9.4941618e-08
9.4940664e-08
9.4939698e-08
9.4938726e-08
9.4937749e-08
9.4936768e-08
9.4935781e-08
9.493479e-08
9.4933812e-08
9.4932847e-08
9.4931841e-08
9.4930709e-08
9.4929447e-08
9.4928095e-08
9.4926674e-08
9.49252e-08
9.4923693e-08
9.4922161e-08
9.4920612e-08
9.4919043e-08
9.4917451e-08
9.4915826e-08
9.4914164e-08
9.4912454e-08
9.491069e-08
9.4908857e-08
9.4906954e-08
9.4904972e-08
9.490292e-08
9.4900793e-08
9.4898608e-08
9.4896285e-08
9.4893682e-08
9.4890811e-08
4.5299897e-11
7.0883524e-10
1.012538e-08
3.8623048e-08
6.98378e-08
8.7451387e-08
9.4001798e-08
9.5783231e-08
9.5982078e-08
9.5856461e-08
9.5750185e-08
9.5700485e-08
9.568246e-08
9.5680468e-08
9.5681138e-08
9.5680551e-08
9.5679215e-08
9.5678021e-08
9.5677116e-08
9.5676222e-08
9.567511e-08
9.5673768e-08
9.5672296e-08
9.5670805e-08
9.5669353e-08
9.5667982e-08
9.5666707e-08
9.5665514e-08
9.5664362e-08
9.5663233e-08
9.5662112e-08
9.5661004e-08
9.5659896e-08
9.5658801e-08
9.5657702e-08
9.5656616e-08
9.5655519e-08
9.5654437e-08
9.5653338e-08
9.5652233e-08
9.5651118e-08
9.5649995e-08
9.5648864e-08
9.5647722e-08
9.5646573e-08
9.5645412e-08
9.5644242e-08
9.5643061e-08
9.5641871e-08
9.5640668e-08
9.5639456e-08
9.5638234e-08
9.5637011e-08
9.563578e-08
9.5634543e-08
9.5633312e-08
9.5632096e-08
9.5630851e-08
9.5629482e-08
9.5627965e-08
9.5626339e-08
9.5624632e-08
9.5622861e-08
9.5621048e-08
9.5619202e-08
9.5617334e-08
9.5615437e-08
9.5613508e-08
9.5611535e-08
9.5609512e-08
9.5607426e-08
9.5605269e-08
9.5603026e-08
9.5600691e-08
9.5598252e-08
9.5595715e-08
9.5593075e-08
9.5590353e-08
9.5587471e-08
9.5584254e-08
9.5580699e-08
5.0848044e-11
9.110824e-10
1.2551401e-08
4.4332942e-08
7.5106469e-08
9.0513609e-08
9.5568939e-08
9.6703966e-08
9.670517e-08
9.6556013e-08
9.646625e-08
9.6429531e-08
9.6419693e-08
9.64199e-08
9.6419815e-08
9.6418422e-08
9.6416706e-08
9.64153e-08
9.6414147e-08
9.6412933e-08
9.6411476e-08
9.640981e-08
9.6408048e-08
9.6406294e-08
9.6404593e-08
9.6402987e-08
9.6401482e-08
9.6400059e-08
9.6398673e-08
9.6397314e-08
9.6395964e-08
9.6394631e-08
9.63933e-08
9.6391985e-08
9.6390665e-08
9.6389362e-08
9.6388046e-08
9.6386748e-08
9.6385431e-08
9.6384117e-08
9.6382786e-08
9.638145e-08
9.6380104e-08
9.637875e-08
9.6377386e-08
9.6376011e-08
9.6374624e-08
9.6373225e-08
9.6371814e-08
9.6370389e-08
9.636895e-08
9.6367502e-08
9.6366047e-08
9.6364587e-08
9.6363116e-08
9.6361647e-08
9.6360192e-08
9.635872e-08
9.6357131e-08
9.635538e-08
9.6353499e-08
9.6351523e-08
9.6349472e-08
9.6347369e-08
9.6345227e-08
9.6343056e-08
9.6340851e-08
9.6338606e-08
9.6336307e-08
9.6333945e-08
9.6331505e-08
9.632898e-08
9.6326351e-08
9.632361e-08
9.6320743e-08
9.6317749e-08
9.6314627e-08
9.6311398e-08
9.6307994e-08
9.6304203e-08
9.6300002e-08
5.827579e-11
1.1804325e-09
1.5490238e-08
5.0422835e-08
8.0108786e-08
9.3053646e-08
9.6932246e-08
9.7556775e-08
9.7434134e-08
9.7287917e-08
9.7217959e-08
9.719259e-08
9.7189185e-08
9.7189602e-08
9.7188565e-08
9.7186558e-08
9.7184585e-08
9.7182986e-08
9.7181578e-08
9.7180047e-08
9.717826e-08
9.7176294e-08
9.7174265e-08
9.7172267e-08
9.7170337e-08
9.7168513e-08
9.7166796e-08
9.7165157e-08
9.7163554e-08
9.716198e-08
9.7160416e-08
9.7158872e-08
9.7157332e-08
9.7155811e-08
9.7154285e-08
9.7152778e-08
9.7151258e-08
9.7149759e-08
9.7148238e-08
9.7146729e-08
9.7145198e-08
9.7143663e-08
9.7142118e-08
9.7140566e-08
9.7139002e-08
9.7137428e-08
9.713584e-08
9.713424e-08
9.7132624e-08
9.7130993e-08
9.7129345e-08
9.7127686e-08
9.7126016e-08
9.712434e-08
9.7122652e-08
9.7120962e-08
9.7119283e-08
9.7117597e-08
9.7115809e-08
9.7113849e-08
9.7111733e-08
9.7109509e-08
9.7107197e-08
9.7104824e-08
9.7102405e-08
9.7099952e-08
9.7097461e-08
9.7094923e-08
9.7092321e-08
9.7089646e-08
9.7086879e-08
9.7084012e-08
9.7081026e-08
9.7077911e-08
9.7074647e-08
9.7071231e-08
9.7067659e-08
9.7063959e-08
9.7060074e-08
9.7055758e-08
9.7050951e-08
6.8240179e-11
1.5463049e-09
1.902146e-08
5.6804944e-08
8.4766797e-08
9.5392243e-08
9.8117878e-08
9.8365698e-08
9.8185835e-08
9.8058342e-08
9.8006716e-08
9.7992361e-08
9.7992047e-08
9.7991669e-08
9.7989754e-08
9.7987341e-08
9.798518e-08
9.7983396e-08
9.7981733e-08
9.7979891e-08
9.7977795e-08
9.7975555e-08
9.7973285e-08
9.7971065e-08
9.7968925e-08
9.7966907e-08
9.7964994e-08
9.7963157e-08
9.7961354e-08
9.7959581e-08
9.7957821e-08
9.7956084e-08
9.7954351e-08
9.795264e-08
9.7950925e-08
9.794923e-08
9.7947524e-08
9.7945839e-08
9.7944134e-08
9.7942445e-08
9.7940731e-08
9.7939014e-08
9.7937288e-08
9.7935554e-08
9.7933808e-08
9.7932052e-08
9.7930281e-08
9.7928497e-08
9.7926695e-08
9.7924877e-08
9.7923038e-08
9.7921185e-08
9.7919319e-08
9.7917445e-08
9.7915558e-08
9.7913666e-08
9.7911783e-08
9.7909901e-08
9.7907934e-08
9.7905791e-08
9.7903469e-08
9.790102e-08
9.7898471e-08
9.7895849e-08
9.7893176e-08
9.7890464e-08
9.7887711e-08
9.7884906e-08
9.788203e-08
9.787907e-08
9.7876006e-08
9.7872829e-08
9.7869518e-08
9.7866063e-08
9.786244e-08
9.7858641e-08
9.7854658e-08
9.7850527e-08
9.7846208e-08
9.7841421e-08
9.7836056e-08
8.1619587e-11
2.0531585e-09
2.3220972e-08
6.3366537e-08
8.903255e-08
9.7402826e-08
9.9172916e-08
9.916731e-08
9.8972103e-08
9.8871065e-08
9.8835356e-08
9.8829844e-08
9.8830015e-08
9.8828611e-08
9.8826041e-08
9.8823382e-08
9.882107e-08
9.8819108e-08
9.8817194e-08
9.8815055e-08
9.8812677e-08
9.8810191e-08
9.8807706e-08
9.8805288e-08
9.8802965e-08
9.8800774e-08
9.8798687e-08
9.8796671e-08
9.8794687e-08
9.8792737e-08
9.87908e-08
9.8788889e-08
9.8786984e-08
9.8785102e-08
9.8783218e-08
9.8781354e-08
9.8779481e-08
9.877763e-08
9.8775759e-08
9.8773908e-08
9.877203e-08
9.8770152e-08
9.8768264e-08
9.8766369e-08
9.8764461e-08
9.8762542e-08
9.8760608e-08
9.875866e-08
9.8756694e-08
9.8754709e-08
9.8752701e-08
9.8750676e-08
9.8748635e-08
9.8746583e-08
9.8744519e-08
9.8742447e-08
9.8740382e-08
9.8738326e-08
9.8736202e-08
9.8733906e-08
9.8731408e-08
9.8728762e-08
9.8726001e-08
9.8723159e-08
9.8720256e-08
9.8717313e-08
9.8714325e-08
9.8711283e-08
9.8708165e-08
9.8704953e-08
9.8701628e-08
9.8698176e-08
9.8694578e-08
9.8690823e-08
9.8686884e-08
9.8682746e-08
9.8678396e-08
9.867388e-08
9.866918e-08
9.8663986e-08
9.8658118e-08
9.9557811e-11
2.7562508e-09
2.8154179e-08
6.9975247e-08
9.2864632e-08
9.9130143e-08
1.0014474e-07
9.9983351e-08
9.9802523e-08
9.9728276e-08
9.9707314e-08
9.9706323e-08
9.9705701e-08
9.9703369e-08
9.9700394e-08
9.9697574e-08
9.9695136e-08
9.9693008e-08
9.9690853e-08
9.9688438e-08
9.9685809e-08
9.9683109e-08
9.9680438e-08
9.9677849e-08
9.9675371e-08
9.9673033e-08
9.9670795e-08
9.9668622e-08
9.9666482e-08
9.9664376e-08
9.9662286e-08
9.9660224e-08
9.9658169e-08
9.9656139e-08
9.9654107e-08
9.9652099e-08
9.9650081e-08
9.9648086e-08
9.9646072e-08
9.9644081e-08
9.9642062e-08
9.9640044e-08
9.9638017e-08
9.9635982e-08
9.9633936e-08
9.9631878e-08
9.9629804e-08
9.9627716e-08
9.9625608e-08
9.9623481e-08
9.9621329e-08
9.9619156e-08
9.9616964e-08
9.9614758e-08
9.9612541e-08
9.9610316e-08
9.9608095e-08
9.960589e-08
9.9603635e-08
9.9601216e-08
9.9598581e-08
9.959577e-08
9.9592829e-08
9.9589794e-08
9.9586693e-08
9.9583549e-08
9.958036e-08
9.9577116e-08
9.9573791e-08
9.9570366e-08
9.9566819e-08
9.9563134e-08
9.9559291e-08
9.9555281e-08
9.9551075e-08
9.9546651e-08
9.9541987e-08
9.9537139e-08
9.9532118e-08
9.9526589e-08
9.9520281e-08
1.2363168e-10
3.7001771e-09
3.3879994e-08
7.6485636e-08
9.6177817e-08
1.006209e-07
1.0107029e-07
1.0083301e-07
1.0068365e-07
1.0063292e-07
1.0062418e-07
1.0062397e-07
1.0062226e-07
1.0061927e-07
1.0061608e-07
1.0061315e-07
1.0061061e-07
1.0060834e-07
1.0060596e-07
1.0060329e-07
1.0060045e-07
1.0059757e-07
1.0059475e-07
1.0059202e-07
1.0058942e-07
1.0058696e-07
1.005846e-07
1.005823e-07
1.0058003e-07
1.0057779e-07
1.0057558e-07
1.0057339e-07
1.0057121e-07
1.0056906e-07
1.0056691e-07
1.0056478e-07
1.0056264e-07
1.0056053e-07
1.005584e-07
1.0055629e-07
1.0055416e-07
1.0055203e-07
1.0054989e-07
1.0054774e-07
1.0054558e-07
1.0054341e-07
1.0054122e-07
1.0053902e-07
1.005368e-07
1.0053456e-07
1.0053229e-07
1.0053e-07
1.0052768e-07
1.0052535e-07
1.0052301e-07
1.0052066e-07
1.0051831e-07
1.0051599e-07
1.0051363e-07
1.0051113e-07
1.0050839e-07
1.0050546e-07
1.0050237e-07
1.0049918e-07
1.0049592e-07
1.0049261e-07
1.0048925e-07
1.0048585e-07
1.0048236e-07
1.0047877e-07
1.0047504e-07
1.0047117e-07
1.0046713e-07
1.0046292e-07
1.004585e-07
1.0045386e-07
1.0044894e-07
1.0044382e-07
1.0043855e-07
1.0043277e-07
1.0042609e-07
1.5638934e-10
4.9840324e-09
4.0471343e-08
8.2746257e-08
9.8538713e-08
1.0192958e-07
1.019818e-07
1.0172925e-07
1.0161951e-07
1.01589e-07
1.0158694e-07
1.0158605e-07
1.0158342e-07
1.0158005e-07
1.0157675e-07
1.0157375e-07
1.0157115e-07
1.0156875e-07
1.0156617e-07
1.0156329e-07
1.0156027e-07
1.0155726e-07
1.0155432e-07
1.0155149e-07
1.015488e-07
1.0154626e-07
1.015438e-07
1.015414e-07
1.0153903e-07
1.015367e-07
1.0153439e-07
1.0153211e-07
1.0152984e-07
1.0152759e-07
1.0152535e-07
1.0152313e-07
1.015209e-07
1.0151871e-07
1.0151649e-07
1.015143e-07
1.0151208e-07
1.0150987e-07
1.0150764e-07
1.0150541e-07
1.0150317e-07
1.0150092e-07
1.0149865e-07
1.0149637e-07
1.0149406e-07
1.0149174e-07
1.0148939e-07
1.0148701e-07
1.0148461e-07
1.0148218e-07
1.0147975e-07
1.014773e-07
1.0147487e-07
1.0147246e-07
1.0147004e-07
1.0146748e-07
1.014647e-07
1.0146169e-07
1.014585e-07
1.0145519e-07
1.0145181e-07
1.0144837e-07
1.014449e-07
1.0144138e-07
1.0143777e-07
1.0143406e-07
1.0143022e-07
1.0142622e-07
1.0142204e-07
1.0141769e-07
1.0141312e-07
1.0140832e-07
1.0140322e-07
1.013979e-07
1.0139245e-07
1.0138653e-07
1.0137957e-07
2.0168346e-10
6.728759e-09
4.7933053e-08
8.8610392e-08
1.0104876e-07
1.030737e-07
1.0289957e-07
1.0268593e-07
1.0261316e-07
1.0259933e-07
1.0259861e-07
1.0259664e-07
1.025934e-07
1.0258988e-07
1.0258653e-07
1.025835e-07
1.0258089e-07
1.025784e-07
1.0257563e-07
1.0257259e-07
1.0256945e-07
1.0256634e-07
1.0256332e-07
1.0256044e-07
1.0255771e-07
1.0255512e-07
1.0255261e-07
1.0255014e-07
1.0254771e-07
1.0254532e-07
1.0254295e-07
1.0254061e-07
1.0253828e-07
1.0253598e-07
1.0253368e-07
1.025314e-07
1.0252912e-07
1.0252687e-07
1.025246e-07
1.0252236e-07
1.0252009e-07
1.0251784e-07
1.0251556e-07
1.0251328e-07
1.0251099e-07
1.025087e-07
1.0250638e-07
1.0250405e-07
1.0250171e-07
1.0249934e-07
1.0249694e-07
1.0249452e-07
1.0249207e-07
1.0248959e-07
1.024871e-07
1.024846e-07
1.0248212e-07
1.0247967e-07
1.0247722e-07
1.0247466e-07
1.0247188e-07
1.0246884e-07
1.024656e-07
1.0246223e-07
1.0245877e-07
1.0245526e-07
1.0245172e-07
1.0244814e-07
1.0244447e-07
1.024407e-07
1.024368e-07
1.0243274e-07
1.0242849e-07
1.0242406e-07
1.0241943e-07
1.0241455e-07
1.0240936e-07
1.0240392e-07
1.0239839e-07
1.0239242e-07
1.0238528e-07
2.6570041e-10
9.1008553e-09
5.6195633e-08
9.395423e-08
1.0309397e-07
1.0413913e-07
1.0387399e-07
1.037126e-07
1.0366868e-07
1.0366456e-07
1.0366336e-07
1.0366053e-07
1.0365699e-07
1.0365345e-07
1.036501e-07
1.0364711e-07
1.0364453e-07
1.0364199e-07
1.0363909e-07
1.0363594e-07
1.0363271e-07
1.0362956e-07
1.0362651e-07
1.0362363e-07
1.0362092e-07
1.0361832e-07
1.0361579e-07
1.0361331e-07
1.0361085e-07
1.0360844e-07
1.0360605e-07
1.0360369e-07
1.0360135e-07
1.0359903e-07
1.0359672e-07
1.0359443e-07
1.0359214e-07
1.0358988e-07
1.0358759e-07
1.0358534e-07
1.0358306e-07
1.0358081e-07
1.0357852e-07
1.0357624e-07
1.0357394e-07
1.0357164e-07
1.0356933e-07
1.03567e-07
1.0356465e-07
1.0356228e-07
1.0355988e-07
1.0355746e-07
1.03555e-07
1.0355253e-07
1.0355003e-07
1.0354752e-07
1.0354502e-07
1.0354259e-07
1.0354016e-07
1.0353765e-07
1.0353492e-07
1.0353193e-07
1.035287e-07
1.0352532e-07
1.0352184e-07
1.0351831e-07
1.0351476e-07
1.0351118e-07
1.0350752e-07
1.0350377e-07
1.0349987e-07
1.0349583e-07
1.034916e-07
1.0348718e-07
1.0348255e-07
1.034777e-07
1.0347252e-07
1.0346706e-07
1.0346155e-07
1.0345567e-07
1.0344847e-07
3.5898056e-10
1.232652e-08
6.5021942e-08
9.8712514e-08
1.0485327e-07
1.0519558e-07
1.0491916e-07
1.0481095e-07
1.0478952e-07
1.0478873e-07
1.0478649e-07
1.0478317e-07
1.047796e-07
1.0477612e-07
1.0477284e-07
1.0476996e-07
1.0476749e-07
1.0476491e-07
1.0476193e-07
1.0475874e-07
1.0475549e-07
1.0475235e-07
1.0474935e-07
1.0474653e-07
1.0474387e-07
1.0474132e-07
1.0473882e-07
1.0473637e-07
1.0473395e-07
1.0473157e-07
1.0472921e-07
1.0472689e-07
1.0472457e-07
1.0472229e-07
1.0472001e-07
1.0471776e-07
1.047155e-07
1.0471327e-07
1.0471103e-07
1.0470882e-07
1.0470657e-07
1.0470436e-07
1.0470211e-07
1.0469988e-07
1.0469763e-07
1.0469538e-07
1.046931e-07
1.0469082e-07
1.0468852e-07
1.046862e-07
1.0468386e-07
1.0468149e-07
1.0467909e-07
1.0467666e-07
1.0467421e-07
1.0467174e-07
1.0466929e-07
1.0466692e-07
1.0466458e-07
1.0466217e-07
1.0465956e-07
1.046567e-07
1.0465356e-07
1.0465023e-07
1.046468e-07
1.0464332e-07
1.0463983e-07
1.0463633e-07
1.0463276e-07
1.046291e-07
1.046253e-07
1.0462136e-07
1.0461724e-07
1.0461292e-07
1.0460841e-07
1.046037e-07
1.0459865e-07
1.0459327e-07
1.0458792e-07
1.0458228e-07
1.0457516e-07
5.0033835e-10
1.6717467e-08
7.4250717e-08
1.0283328e-07
1.0637497e-07
1.062822e-07
1.0604848e-07
1.0598537e-07
1.0597861e-07
1.0597736e-07
1.0597423e-07
1.0597083e-07
1.0596739e-07
1.0596403e-07
1.0596091e-07
1.0595824e-07
1.0595594e-07
1.0595339e-07
1.059504e-07
1.0594721e-07
1.0594401e-07
1.0594096e-07
1.0593809e-07
1.0593541e-07
1.0593287e-07
1.0593042e-07
1.0592801e-07
1.0592565e-07
1.0592332e-07
1.0592103e-07
1.0591876e-07
1.0591653e-07
1.059143e-07
1.0591211e-07
1.0590992e-07
1.0590777e-07
1.059056e-07
1.0590346e-07
1.0590131e-07
1.0589919e-07
1.0589704e-07
1.0589493e-07
1.0589278e-07
1.0589066e-07
1.058885e-07
1.0588636e-07
1.0588419e-07
1.0588202e-07
1.0587982e-07
1.0587762e-07
1.0587538e-07
1.0587314e-07
1.0587085e-07
1.0586855e-07
1.0586621e-07
1.0586386e-07
1.0586152e-07
1.0585925e-07
1.0585705e-07
1.0585484e-07
1.0585243e-07
1.0584977e-07
1.0584681e-07
1.0584363e-07
1.0584032e-07
1.0583697e-07
1.0583363e-07
1.0583029e-07
1.058269e-07
1.0582343e-07
1.0581984e-07
1.0581611e-07
1.058122e-07
1.0580811e-07
1.0580383e-07
1.0579939e-07
1.0579462e-07
1.0578947e-07
1.0578441e-07
1.0577918e-07
1.0577233e-07
7.2656995e-10
2.2700998e-08
8.4121826e-08
1.0534563e-07
1.0772858e-07
1.0743621e-07
1.0727023e-07
1.0724062e-07
1.0723937e-07
1.0723717e-07
1.0723378e-07
1.0723061e-07
1.0722741e-07
1.0722426e-07
1.0722141e-07
1.0721904e-07
1.0721701e-07
1.0721456e-07
1.0721161e-07
1.072085e-07
1.0720544e-07
1.0720259e-07
1.0719994e-07
1.0719747e-07
1.0719512e-07
1.0719284e-07
1.071906e-07
1.0718841e-07
1.0718624e-07
1.071841e-07
1.0718199e-07
1.0717992e-07
1.0717785e-07
1.0717582e-07
1.0717379e-07
1.0717179e-07
1.0716979e-07
1.0716781e-07
1.0716582e-07
1.0716387e-07
1.0716188e-07
1.0715994e-07
1.0715795e-07
1.07156e-07
1.0715401e-07
1.0715205e-07
1.0715005e-07
1.0714807e-07
1.0714604e-07
1.0714403e-07
1.0714198e-07
1.0713993e-07
1.0713783e-07
1.0713573e-07
1.0713358e-07
1.0713144e-07
1.0712929e-07
1.0712721e-07
1.071252e-07
1.0712327e-07
1.0712116e-07
1.0711881e-07
1.0711614e-07
1.071132e-07
1.0711011e-07
1.0710699e-07
1.0710388e-07
1.0710082e-07
1.0709773e-07
1.0709456e-07
1.0709128e-07
1.070879e-07
1.0708435e-07
1.0708062e-07
1.0707671e-07
1.0707268e-07
1.0706837e-07
1.0706363e-07
1.0705902e-07
1.070544e-07
1.0704805e-07
1.1505501e-09
3.0849835e-08
9.3244389e-08
1.0777616e-07
1.0893925e-07
1.0867203e-07
1.085887e-07
1.085807e-07
1.0857928e-07
1.0857642e-07
1.0857321e-07
1.0857047e-07
1.0856762e-07
1.0856481e-07
1.0856235e-07
1.0856043e-07
1.0855877e-07
1.0855648e-07
1.0855364e-07
1.0855071e-07
1.0854793e-07
1.0854539e-07
1.0854307e-07
1.085409e-07
1.0853882e-07
1.085368e-07
1.0853482e-07
1.0853287e-07
1.0853094e-07
1.0852906e-07
1.0852719e-07
1.0852535e-07
1.0852353e-07
1.0852174e-07
1.0851995e-07
1.0851819e-07
1.0851643e-07
1.085147e-07
1.0851295e-07
1.0851124e-07
1.085095e-07
1.085078e-07
1.0850606e-07
1.0850437e-07
1.0850263e-07
1.0850092e-07
1.0849918e-07
1.0849746e-07
1.0849571e-07
1.0849397e-07
1.0849219e-07
1.0849042e-07
1.084886e-07
1.0848679e-07
1.0848494e-07
1.084831e-07
1.0848124e-07
1.0847945e-07
1.0847773e-07
1.0847613e-07
1.0847445e-07
1.0847251e-07
1.0847026e-07
1.084677e-07
1.0846494e-07
1.0846215e-07
1.0845941e-07
1.0845675e-07
1.0845409e-07
1.0845136e-07
1.0844855e-07
1.0844565e-07
1.0844262e-07
1.0843942e-07
1.0843606e-07
1.084326e-07
1.0842897e-07
1.0842484e-07
1.0842088e-07
1.0841709e-07
1.0841153e-07
2.2742582e-09
4.186047e-08
1.0161339e-07
1.0997572e-07
1.1020698e-07
1.1003821e-07
1.1000948e-07
1.1000868e-07
1.1000639e-07
1.1000374e-07
1.1000109e-07
1.0999895e-07
1.0999654e-07
1.0999424e-07
1.0999233e-07
1.0999098e-07
1.0998981e-07
1.0998779e-07
1.0998516e-07
1.0998255e-07
1.099802e-07
1.0997813e-07
1.0997625e-07
1.0997448e-07
1.0997278e-07
1.0997113e-07
1.099695e-07
1.099679e-07
1.0996632e-07
1.0996478e-07
1.0996326e-07
1.0996176e-07
1.0996028e-07
1.0995883e-07
1.0995738e-07
1.0995596e-07
1.0995454e-07
1.0995314e-07
1.0995174e-07
1.0995036e-07
1.0994897e-07
1.0994761e-07
1.0994622e-07
1.0994487e-07
1.0994349e-07
1.0994214e-07
1.0994075e-07
1.099394e-07
1.0993801e-07
1.0993664e-07
1.0993524e-07
1.0993386e-07
1.0993243e-07
1.0993102e-07
1.0992957e-07
1.0992813e-07
1.0992668e-07
1.099253e-07
1.0992398e-07
1.0992281e-07
1.0992165e-07
1.0992028e-07
1.0991859e-07
1.0991655e-07
1.0991427e-07
1.0991197e-07
1.0990972e-07
1.0990762e-07
1.0990555e-07
1.0990343e-07
1.0990125e-07
1.0989901e-07
1.0989668e-07
1.0989421e-07
1.098916e-07
1.0988893e-07
1.0988616e-07
1.0988297e-07
1.0987983e-07
1.0987712e-07
1.0987273e-07
4.5590364e-09
5.8025112e-08
1.0877916e-07
1.1175324e-07
1.1160087e-07
1.1153409e-07
1.1153049e-07
1.1152992e-07
1.1152787e-07
1.1152604e-07
1.1152418e-07
1.115228e-07
1.1152102e-07
1.1151944e-07
1.1151823e-07
1.1151759e-07
1.11517e-07
1.1151535e-07
1.1151314e-07
1.1151111e-07
1.1150939e-07
1.1150792e-07
1.1150662e-07
1.1150539e-07
1.1150419e-07
1.1150303e-07
1.1150189e-07
1.1150077e-07
1.1149967e-07
1.114986e-07
1.1149754e-07
1.1149651e-07
1.1149549e-07
1.1149449e-07
1.114935e-07
1.1149253e-07
1.1149156e-07
1.1149062e-07
1.1148967e-07
1.1148874e-07
1.1148781e-07
1.114869e-07
1.1148598e-07
1.1148509e-07
1.1148418e-07
1.1148329e-07
1.1148239e-07
1.1148151e-07
1.114806e-07
1.1147973e-07
1.1147882e-07
1.1147794e-07
1.1147702e-07
1.1147613e-07
1.114752e-07
1.114743e-07
1.1147339e-07
1.1147255e-07
1.1147175e-07
1.1147111e-07
1.1147055e-07
1.1146988e-07
1.1146889e-07
1.1146756e-07
1.1146595e-07
1.1146431e-07
1.1146276e-07
1.1146137e-07
1.1146006e-07
1.1145874e-07
1.1145738e-07
1.1145598e-07
1.1145455e-07
1.1145302e-07
1.1145138e-07
1.1144973e-07
1.1144806e-07
1.1144609e-07
1.1144406e-07
1.1144268e-07
1.1143978e-07
8.5433794e-09
8.1663114e-08
1.1348177e-07
1.1331594e-07
1.1314973e-07
1.1314022e-07
1.1314144e-07
1.131406e-07
1.1313954e-07
1.131388e-07
1.1313795e-07
1.1313735e-07
1.1313656e-07
1.1313588e-07
1.1313546e-07
1.1313543e-07
1.131354e-07
1.1313442e-07
1.131331e-07
1.1313206e-07
1.1313123e-07
1.1313056e-07
1.1312999e-07
1.1312944e-07
1.1312892e-07
1.1312841e-07
1.1312791e-07
1.1312742e-07
1.1312695e-07
1.1312649e-07
1.1312604e-07
1.1312561e-07
1.1312518e-07
1.1312478e-07
1.1312438e-07
1.1312399e-07
1.1312361e-07
1.1312324e-07
1.1312287e-07
1.1312252e-07
1.1312217e-07
1.1312184e-07
1.1312151e-07
1.1312119e-07
1.1312087e-07
1.1312057e-07
1.1312026e-07
1.1311997e-07
1.1311968e-07
1.131194e-07
1.1311911e-07
1.1311885e-07
1.1311857e-07
1.1311831e-07
1.1311804e-07
1.1311779e-07
1.1311754e-07
1.1311734e-07
1.1311717e-07
1.1311711e-07
1.1311713e-07
1.1311719e-07
1.1311702e-07
1.1311659e-07
1.1311595e-07
1.1311529e-07
1.1311471e-07
1.1311427e-07
1.1311389e-07
1.1311356e-07
1.131132e-07
1.1311284e-07
1.1311247e-07
1.131121e-07
1.1311165e-07
1.1311124e-07
1.1311083e-07
1.1311032e-07
1.1310967e-07
1.1310967e-07
1.1310868e-07
8.4258493e-08
8.4258558e-08
8.4260312e-08
8.4260128e-08
8.4260635e-08
8.4260838e-08
8.4261115e-08
8.4261346e-08
8.42616e-08
8.4261884e-08
8.4262212e-08
8.4262594e-08
8.4263033e-08
8.4263533e-08
8.4264088e-08
8.4264696e-08
8.4265346e-08
8.4266026e-08
8.4266721e-08
8.4267411e-08
8.4268077e-08
8.4268693e-08
8.4269238e-08
8.4269686e-08
8.4270019e-08
8.4270218e-08
8.4270277e-08
8.4270194e-08
8.4269981e-08
8.4269655e-08
8.4269246e-08
8.4268787e-08
8.4268321e-08
8.4267885e-08
8.4267517e-08
8.4267235e-08
8.4267047e-08
8.4266941e-08
8.4266904e-08
8.4266912e-08
8.4266951e-08
8.4267009e-08
8.4267095e-08
8.4267228e-08
8.4267435e-08
8.4267734e-08
8.4268129e-08
8.4268606e-08
8.4269139e-08
8.4269688e-08
8.4270215e-08
8.4270674e-08
8.4271025e-08
8.4271225e-08
8.4271242e-08
8.4271069e-08
8.4270774e-08
8.4270589e-08
8.4271063e-08
8.4273185e-08
8.4278172e-08
8.4286212e-08
8.4292782e-08
8.4280371e-08
8.4202835e-08
8.3959683e-08
8.3359398e-08
8.2075799e-08
7.9611942e-08
7.5305491e-08
6.8437999e-08
5.8528574e-08
4.5825954e-08
3.1751204e-08
1.870763e-08
8.9391968e-09
3.2518924e-09
8.3879403e-10
1.9916792e-10
1.1589274e-10
1.4935971e-10
8.4477121e-08
8.4477117e-08
8.4478352e-08
8.4478317e-08
8.447874e-08
8.4478954e-08
8.4479212e-08
8.4479441e-08
8.4479693e-08
8.4479975e-08
8.4480302e-08
8.4480681e-08
8.4481116e-08
8.448161e-08
8.4482158e-08
8.4482757e-08
8.4483396e-08
8.4484064e-08
8.4484746e-08
8.4485423e-08
8.4486075e-08
8.448668e-08
8.4487214e-08
8.4487654e-08
8.448798e-08
8.4488177e-08
8.4488237e-08
8.4488159e-08
8.4487955e-08
8.4487642e-08
8.4487249e-08
8.448681e-08
8.4486364e-08
8.448595e-08
8.44856e-08
8.4485336e-08
8.448516e-08
8.4485062e-08
8.4485027e-08
8.4485036e-08
8.4485071e-08
8.4485126e-08
8.4485207e-08
8.4485335e-08
8.4485535e-08
8.4485824e-08
8.4486205e-08
8.4486664e-08
8.4487173e-08
8.4487697e-08
8.4488196e-08
8.4488631e-08
8.4488959e-08
8.4489141e-08
8.4489145e-08
8.4488966e-08
8.4488669e-08
8.4488477e-08
8.4488916e-08
8.449093e-08
8.4495719e-08
8.4503638e-08
8.4510902e-08
8.450209e-08
8.443572e-08
8.4220081e-08
8.3677854e-08
8.2502255e-08
8.0217019e-08
7.6171004e-08
6.9627694e-08
6.0034785e-08
4.7511482e-08
3.3347726e-08
1.9931401e-08
9.6620832e-09
3.5570128e-09
9.1639303e-10
2.0644611e-10
1.0545049e-10
1.3464354e-10
8.4707284e-08
8.4707149e-08
8.4708232e-08
8.4708233e-08
8.4708629e-08
8.4708846e-08
8.4709095e-08
8.470932e-08
8.4709564e-08
8.4709836e-08
8.4710153e-08
8.4710521e-08
8.4710945e-08
8.4711426e-08
8.4711963e-08
8.4712548e-08
8.4713176e-08
8.4713832e-08
8.4714504e-08
8.4715172e-08
8.4715818e-08
8.4716418e-08
8.4716951e-08
8.4717392e-08
8.4717723e-08
8.4717928e-08
8.4717999e-08
8.4717936e-08
8.4717748e-08
8.4717456e-08
8.4717084e-08
8.4716666e-08
8.4716241e-08
8.4715845e-08
8.4715511e-08
8.4715258e-08
8.471509e-08
8.4714997e-08
8.4714962e-08
8.4714968e-08
8.4714999e-08
8.4715047e-08
8.4715118e-08
8.4715232e-08
8.4715412e-08
8.4715677e-08
8.471603e-08
8.471646e-08
8.4716941e-08
8.4717441e-08
8.4717923e-08
8.4718347e-08
8.4718675e-08
8.4718868e-08
8.4718891e-08
8.4718727e-08
8.4718412e-08
8.4718113e-08
8.4718263e-08
8.4719722e-08
8.4723775e-08
8.4731415e-08
8.4740822e-08
8.4741104e-08
8.469959e-08
8.4539486e-08
8.410556e-08
8.311894e-08
8.113051e-08
7.7499879e-08
7.1457291e-08
6.2340297e-08
5.0075563e-08
3.5760452e-08
2.1764208e-08
1.0730584e-08
4.0034999e-09
1.0313595e-09
2.1887543e-10
9.7491345e-11
1.2272853e-10
8.4949953e-08
8.4949777e-08
8.4950701e-08
8.4950736e-08
8.4951105e-08
8.4951327e-08
8.4951568e-08
8.4951789e-08
8.4952026e-08
8.4952293e-08
8.4952601e-08
8.495296e-08
8.4953374e-08
8.4953844e-08
8.4954368e-08
8.4954941e-08
8.4955556e-08
8.4956199e-08
8.4956859e-08
8.4957516e-08
8.4958153e-08
8.4958746e-08
8.4959273e-08
8.4959712e-08
8.4960043e-08
8.4960251e-08
8.4960329e-08
8.4960276e-08
8.4960104e-08
8.4959829e-08
8.4959477e-08
8.4959081e-08
8.4958677e-08
8.4958302e-08
8.4957985e-08
8.4957747e-08
8.4957589e-08
8.4957503e-08
8.495747e-08
8.4957476e-08
8.4957504e-08
8.4957547e-08
8.495761e-08
8.4957712e-08
8.4957877e-08
8.4958122e-08
8.4958451e-08
8.4958854e-08
8.4959308e-08
8.4959783e-08
8.4960242e-08
8.4960651e-08
8.4960972e-08
8.4961167e-08
8.4961201e-08
8.4961051e-08
8.4960738e-08
8.4960386e-08
8.4960354e-08
8.4961403e-08
8.4964782e-08
8.4971784e-08
8.4981811e-08
8.4987202e-08
8.4962137e-08
8.4842281e-08
8.449213e-08
8.3659659e-08
8.1925133e-08
7.8666991e-08
7.3098072e-08
6.4466646e-08
5.2519591e-08
3.814463e-08
2.3643204e-08
1.1864705e-08
4.4925397e-09
1.161523e-09
2.3352019e-10
9.0453418e-11
1.1160164e-10
8.520597e-08
8.5205789e-08
8.5206594e-08
8.5206657e-08
8.5207005e-08
8.520723e-08
8.5207465e-08
8.5207682e-08
8.5207915e-08
8.5208174e-08
8.5208475e-08
8.5208823e-08
8.5209226e-08
8.5209683e-08
8.5210195e-08
8.5210754e-08
8.5211355e-08
8.5211985e-08
8.5212632e-08
8.5213278e-08
8.5213904e-08
8.5214488e-08
8.521501e-08
8.5215445e-08
8.5215776e-08
8.5215987e-08
8.5216071e-08
8.5216029e-08
8.5215871e-08
8.5215614e-08
8.5215284e-08
8.521491e-08
8.5214528e-08
8.5214173e-08
8.5213875e-08
8.5213652e-08
8.5213505e-08
8.5213426e-08
8.5213396e-08
8.5213402e-08
8.5213427e-08
8.5213465e-08
8.521352e-08
8.5213611e-08
8.521376e-08
8.5213984e-08
8.5214289e-08
8.5214666e-08
8.5215092e-08
8.521554e-08
8.5215977e-08
8.521637e-08
8.5216683e-08
8.5216881e-08
8.5216927e-08
8.5216795e-08
8.5216487e-08
8.5216093e-08
8.5215896e-08
8.5216551e-08
8.521924e-08
8.5225464e-08
8.5235659e-08
8.5245054e-08
8.5234199e-08
8.5150706e-08
8.4878581e-08
8.4193374e-08
8.2707384e-08
7.9823629e-08
7.4746689e-08
6.6644793e-08