/*--------------------------------*- C++ -*----------------------------------*\
| =========                 |                                                 |
| \\      /  F ield         | OpenFOAM: The Open Source CFD Toolbox           |
|  \\    /   O peration     | Version:  v2006                                 |
|   \\  /    A nd           | Website:  www.openfoam.com                      |
|    \\/     M anipulation  |                                                 |
\*---------------------------------------------------------------------------*/
FoamFile
{
    version     2.0;
    format      ascii;
    class       volScalarField;
    location    "6000";
    object      omega;
}
// * * * * * * * * * * * * * * * * * * * * * * * * * * * * * * * * * * * * * //

dimensions      [0 0 -1 0 0 0 0];


internalField   nonuniform List<scalar> 
102907
(
15.259213
3.1590515
1.0406464
0.50908228
0.33771869
0.27915786
0.25883908
0.25196183
0.24982885
0.24931781
0.24928982
0.249354
0.24940425
0.24942906
0.24943753
0.24943755
0.24943474
0.24943277
0.24943172
0.24943096
0.24943028
0.2494296
0.24942881
0.24942791
0.24942695
0.24942599
0.24942507
0.24942416
0.24942322
0.24942223
0.24942119
0.24942013
0.24941903
0.2494179
0.24941674
0.24941555
0.24941432
0.24941302
0.24941165
0.24941023
0.24940877
0.24940728
0.24940575
0.24940419
0.24940257
0.24940091
0.24939916
0.24939737
0.24939549
0.24939356
0.24939154
0.24938945
0.24938726
0.24938499
0.24938261
0.24938016
0.24937761
0.24937502
0.24937237
0.2493697
0.24936698
0.24936424
0.24936145
0.24935864
0.24935578
0.24935288
0.24934992
0.24934692
0.24934385
0.2493407
0.24933747
0.24933415
0.24933072
0.24932722
0.24932367
0.24932009
0.24931644
0.24931268
0.24930876
0.2493048
0.24930101
14.321873
2.9763614
0.98318478
0.48761885
0.33221981
0.28073681
0.263534
0.25805518
0.25647479
0.25617534
0.25620953
0.25627858
0.25631875
0.25633357
0.25633429
0.2563274
0.25632055
0.25631517
0.25631051
0.25630609
0.25630181
0.25629759
0.25629332
0.25628903
0.25628476
0.25628058
0.25627647
0.25627243
0.25626839
0.25626435
0.2562603
0.25625626
0.25625221
0.25624816
0.25624411
0.25624003
0.25623595
0.25623181
0.25622761
0.25622335
0.25621906
0.25621474
0.25621038
0.25620599
0.25620154
0.25619703
0.25619241
0.25618773
0.25618295
0.25617809
0.25617312
0.25616804
0.25616284
0.2561575
0.25615202
0.2561464
0.25614064
0.25613476
0.25612876
0.25612266
0.25611644
0.25611011
0.25610365
0.25609707
0.25609033
0.25608344
0.25607637
0.25606911
0.25606163
0.2560539
0.25604591
0.25603761
0.25602897
0.25601999
0.25601067
0.25600102
0.25599093
0.25598033
0.25596907
0.25595722
0.25594498
13.466314
2.8179638
0.93287698
0.46961443
0.3286179
0.28352765
0.26916408
0.26471979
0.26359167
0.26345697
0.26352921
0.26359371
0.26362197
0.26362769
0.26361866
0.26360687
0.26359634
0.26358736
0.26357894
0.26357081
0.26356289
0.26355508
0.26354728
0.26353954
0.2635319
0.26352442
0.26351708
0.26350984
0.26350267
0.26349554
0.26348845
0.26348137
0.26347434
0.26346732
0.26346033
0.26345333
0.26344635
0.26343932
0.26343227
0.26342514
0.26341797
0.26341079
0.26340357
0.2633963
0.26338897
0.26338156
0.26337407
0.26336646
0.26335874
0.26335091
0.26334296
0.26333486
0.26332662
0.26331819
0.26330958
0.26330077
0.26329176
0.26328255
0.26327317
0.26326359
0.26325384
0.26324388
0.26323372
0.26322332
0.26321269
0.26320178
0.26319057
0.26317901
0.26316709
0.26315474
0.26314194
0.26312862
0.26311475
0.26310028
0.26308516
0.26306938
0.26305282
0.26303536
0.26301674
0.26299694
0.26297625
12.683348
2.6711616
0.88594567
0.45368646
0.32646669
0.28727004
0.27541574
0.27196056
0.27121659
0.27120307
0.27129235
0.27134544
0.27136205
0.27135632
0.27133981
0.27132375
0.2713097
0.27129694
0.27128472
0.27127288
0.27126131
0.27124988
0.27123855
0.27122734
0.27121632
0.27120551
0.27119492
0.27118447
0.27117415
0.2711639
0.27115376
0.27114365
0.27113363
0.27112363
0.2711137
0.27110375
0.27109386
0.27108393
0.27107402
0.27106401
0.27105399
0.27104393
0.27103383
0.27102367
0.27101345
0.27100314
0.27099273
0.27098221
0.27097156
0.27096076
0.27094982
0.2709387
0.2709274
0.27091587
0.27090411
0.2708921
0.27087984
0.27086731
0.27085452
0.27084148
0.27082817
0.27081459
0.27080072
0.27078652
0.27077197
0.27075703
0.27074165
0.27072579
0.27070941
0.27069244
0.27067483
0.2706565
0.27063738
0.27061739
0.27059645
0.27057453
0.27055149
0.27052715
0.27050115
0.27047341
0.27044423
11.965041
2.5355537
0.84260075
0.44002686
0.32583654
0.29200405
0.28241347
0.27980513
0.27937439
0.2794424
0.2795326
0.2795707
0.27957595
0.27955745
0.2795358
0.279516
0.2794983
0.27948166
0.27946565
0.27945009
0.27943485
0.27941979
0.2794049
0.27939021
0.27937581
0.27936167
0.27934782
0.27933416
0.27932067
0.27930731
0.27929409
0.27928096
0.27926794
0.27925497
0.27924208
0.2792292
0.2792164
0.27920356
0.27919078
0.27917789
0.27916501
0.27915209
0.27913912
0.27912608
0.27911297
0.27909976
0.27908645
0.279073
0.27905941
0.27904565
0.27903171
0.27901758
0.27900322
0.27898861
0.27897371
0.27895852
0.278943
0.27892717
0.278911
0.2788945
0.27887765
0.27886046
0.27884286
0.27882487
0.2788064
0.27878744
0.27876791
0.27874777
0.27872694
0.27870538
0.27868297
0.27865966
0.27863529
0.27860981
0.27858307
0.27855504
0.27852552
0.27849434
0.278461
0.27842535
0.2783877
11.304509
2.4098288
0.80244462
0.42851135
0.32666153
0.29780591
0.29015332
0.28827781
0.28809961
0.28821535
0.28829329
0.28831706
0.28830569
0.28827907
0.28825319
0.28822979
0.28820823
0.28818771
0.28816795
0.28814871
0.28812978
0.28811109
0.28809263
0.28807448
0.28805669
0.28803926
0.28802216
0.28800531
0.28798867
0.28797222
0.28795593
0.28793978
0.28792377
0.28790785
0.28789202
0.28787624
0.28786054
0.28784482
0.28782916
0.28781342
0.28779768
0.28778192
0.2877661
0.28775021
0.28773424
0.28771817
0.28770195
0.28768561
0.28766908
0.2876524
0.28763548
0.28761836
0.28760096
0.2875833
0.28756529
0.28754697
0.28752824
0.28750913
0.2874896
0.28746968
0.28744931
0.28742852
0.28740724
0.28738547
0.28736312
0.28734018
0.28731654
0.28729216
0.28726693
0.28724081
0.28721365
0.28718539
0.28715584
0.28712493
0.28709245
0.28705835
0.28702241
0.28698444
0.28694386
0.28690036
0.28685434
10.695761
2.2928819
0.76522667
0.41910499
0.32890648
0.30511172
0.29866442
0.29742354
0.29743414
0.29756558
0.29762415
0.29763239
0.29760518
0.29757303
0.29754342
0.2975164
0.29749089
0.29746653
0.29744309
0.2974202
0.29739762
0.29737531
0.29735332
0.29733173
0.29731059
0.2972899
0.29726961
0.29724961
0.29722987
0.29721035
0.29719104
0.2971719
0.29715294
0.29713409
0.29711538
0.29709672
0.29707817
0.29705961
0.29704112
0.29702256
0.297004
0.29698543
0.2969668
0.29694811
0.29692932
0.29691042
0.29689137
0.29687216
0.29685276
0.29683317
0.29681334
0.29679327
0.2967729
0.29675222
0.29673119
0.29670976
0.29668789
0.29666556
0.29664274
0.29661943
0.29659561
0.29657127
0.29654636
0.29652087
0.29649472
0.29646786
0.29644019
0.29641164
0.2963821
0.29635149
0.29631966
0.29628652
0.29625189
0.29621563
0.29617753
0.29613747
0.29609523
0.29605058
0.29600289
0.2959517
0.29589743
10.133561
2.1836131
0.73071816
0.41178006
0.33257744
0.31295215
0.3080249
0.30730353
0.30742155
0.30754597
0.307585
0.30757176
0.3075346
0.30749826
0.30746517
0.30743435
0.30740491
0.30737686
0.30734984
0.30732336
0.30729716
0.3072713
0.30724583
0.30722086
0.30719645
0.30717258
0.30714915
0.30712608
0.30710331
0.30708079
0.30705853
0.30703647
0.30701461
0.30699291
0.30697136
0.3069499
0.30692856
0.30690723
0.30688599
0.30686467
0.30684337
0.30682205
0.30680067
0.30677924
0.30675769
0.30673604
0.30671422
0.30669224
0.30667004
0.30664763
0.30662496
0.30660201
0.30657875
0.30655515
0.30653115
0.30650671
0.30648178
0.30645633
0.30643031
0.30640371
0.30637652
0.30634873
0.30632029
0.30629118
0.30626132
0.30623066
0.30619907
0.30616646
0.30613273
0.30609775
0.30606139
0.30602351
0.30598394
0.30594249
0.30589892
0.30585305
0.30580468
0.30575355
0.30569896
0.30564029
0.305578
9.6133194
2.0809391
0.69873602
0.40653099
0.33763484
0.32186026
0.31826261
0.31793911
0.3181195
0.31822065
0.31823906
0.31820461
0.31816142
0.31812161
0.31808516
0.31805042
0.3180172
0.31798562
0.31795514
0.31792515
0.31789543
0.3178661
0.31783727
0.31780905
0.31778149
0.31775454
0.3177281
0.31770205
0.31767634
0.31765094
0.31762583
0.31760095
0.31757631
0.31755184
0.31752756
0.31750339
0.31747936
0.31745536
0.31743146
0.3174075
0.31738357
0.3173596
0.31733558
0.3173115
0.31728731
0.317263
0.31723853
0.31721387
0.31718899
0.31716387
0.31713847
0.31711278
0.31708673
0.31706032
0.31703348
0.31700617
0.31697831
0.31694987
0.31692078
0.31689104
0.31686062
0.31682951
0.31679768
0.3167651
0.31673169
0.31669738
0.31666203
0.31662554
0.31658777
0.31654862
0.3165079
0.31646549
0.31642118
0.31637477
0.31632597
0.31627455
0.31622029
0.31616292
0.31610176
0.31603595
0.31596594
9.1309966
1.983716
0.66914043
0.40337334
0.34410714
0.33186501
0.32941395
0.32939559
0.32959436
0.3296663
0.3296574
0.32960978
0.32956257
0.32951971
0.32947973
0.32944119
0.32940445
0.32936958
0.3293358
0.3293024
0.32926929
0.32923665
0.32920464
0.32917335
0.32914282
0.32911295
0.32908364
0.32905475
0.32902627
0.32899812
0.32897031
0.32894276
0.32891549
0.32888841
0.32886155
0.3288348
0.32880823
0.32878169
0.3287553
0.32872882
0.32870243
0.32867596
0.32864945
0.32862287
0.32859619
0.32856937
0.32854239
0.32851522
0.32848782
0.32846015
0.32843219
0.3284039
0.32837524
0.32834618
0.32831667
0.32828667
0.32825608
0.32822484
0.32819289
0.3281602
0.32812674
0.32809251
0.32805748
0.32802163
0.32798487
0.32794713
0.32790825
0.32786811
0.32782657
0.32778349
0.3277387
0.32769204
0.32764328
0.32759221
0.32753852
0.3274819
0.32742209
0.32735887
0.32729154
0.32721906
0.32714177
8.6830294
1.8906844
0.641843
0.40234063
0.35228028
0.34303314
0.34155218
0.34174342
0.3419267
0.34196789
0.34193018
0.34187623
0.34182626
0.34178057
0.341737
0.34169492
0.34165502
0.34161717
0.34158029
0.34154365
0.34150735
0.34147163
0.34143669
0.34140258
0.34136932
0.34133676
0.34130479
0.34127328
0.34124222
0.34121154
0.34118124
0.34115122
0.34112153
0.34109203
0.3410628
0.34103367
0.34100477
0.34097588
0.3409472
0.3409184
0.34088975
0.340861
0.3408322
0.34080334
0.34077437
0.34074526
0.34071599
0.34068651
0.34065679
0.3406268
0.34059649
0.34056583
0.34053478
0.34050332
0.34047139
0.34043893
0.34040587
0.3403721
0.34033756
0.34030218
0.34026595
0.34022887
0.34019091
0.34015205
0.34011224
0.34007136
0.34002927
0.33998582
0.33994084
0.33989419
0.3398457
0.33979516
0.33974236
0.33968706
0.33962893
0.33956758
0.3395027
0.33943412
0.33936119
0.33928268
0.33919872
8.2662667
1.8004099
0.61681723
0.40346732
0.36384487
0.35544155
0.35476411
0.35507608
0.35521488
0.35522062
0.35516429
0.35510665
0.3550545
0.35500596
0.35495903
0.35491382
0.35487123
0.35483079
0.35479108
0.35475146
0.35471226
0.3546738
0.35463626
0.35459966
0.35456398
0.35452903
0.35449469
0.35446085
0.35442751
0.35439457
0.35436206
0.35432985
0.35429801
0.35426638
0.35423505
0.35420383
0.35417288
0.35414192
0.35411121
0.35408036
0.35404973
0.35401895
0.35398816
0.3539573
0.35392633
0.35389522
0.35386393
0.35383244
0.35380069
0.35376867
0.35373631
0.3537036
0.35367047
0.35363691
0.35360287
0.3535683
0.3535331
0.35349717
0.35346039
0.3534227
0.35338405
0.35334447
0.35330394
0.35326246
0.35321996
0.35317636
0.35313149
0.35308517
0.35303721
0.35298747
0.35293576
0.35288188
0.35282557
0.35276661
0.35270463
0.3526392
0.35256991
0.35249663
0.35241886
0.35233516
0.35224536
7.8779157
1.7112108
0.59410861
0.40685176
0.37502305
0.36931072
0.36918885
0.36948967
0.36957487
0.36954233
0.36947889
0.36941966
0.36936581
0.36931456
0.36926472
0.36921693
0.36917222
0.36912968
0.36908751
0.36904531
0.36900365
0.3689629
0.3689232
0.36888454
0.36884685
0.3688099
0.3687736
0.36873781
0.36870257
0.36866776
0.36863342
0.3685994
0.36856578
0.36853238
0.36849933
0.36846638
0.36843374
0.36840108
0.36836871
0.3683362
0.36830393
0.36827149
0.3682391
0.3682066
0.368174
0.36814127
0.36810836
0.36807524
0.36804186
0.3680082
0.3679742
0.36793983
0.36790504
0.3678698
0.36783407
0.3677978
0.36776092
0.36772329
0.36768476
0.36764524
0.36760467
0.36756307
0.36752046
0.36747685
0.36743219
0.3673864
0.36733931
0.36729071
0.36724037
0.36718817
0.36713391
0.36707737
0.36701827
0.36695638
0.36689136
0.3668227
0.36674988
0.36667279
0.36659118
0.36650342
0.36640888
7.515498
1.6211037
0.57385291
0.41252088
0.38828639
0.38464577
0.38485111
0.38510306
0.38513916
0.38508045
0.38501386
0.38495411
0.38489889
0.3848454
0.38479336
0.38474372
0.38469759
0.38465354
0.38460943
0.38456526
0.38452177
0.38447931
0.38443802
0.38439786
0.38435869
0.38432027
0.38428252
0.38424532
0.38420869
0.38417252
0.38413684
0.38410151
0.3840666
0.38403193
0.38399763
0.38396346
0.38392959
0.38389574
0.38386219
0.3838285
0.38379508
0.38376146
0.38372797
0.38369432
0.38366061
0.38362675
0.38359272
0.38355849
0.38352401
0.38348923
0.38345412
0.38341863
0.38338271
0.38334633
0.38330946
0.38327206
0.38323408
0.38319537
0.38315574
0.38311504
0.38307319
0.38303023
0.38298619
0.3829411
0.38289494
0.38284766
0.38279909
0.38274899
0.3826971
0.38264326
0.38258732
0.38252902
0.38246808
0.38240426
0.38233724
0.38226647
0.3821913
0.38211155
0.3820274
0.38193706
0.38183927
7.1768157
1.5277618
0.55630205
0.42057401
0.40339853
0.40151176
0.40190455
0.40208319
0.40206984
0.40199919
0.40193279
0.40187352
0.40181734
0.40176248
0.40170925
0.40165864
0.40161196
0.40156716
0.40152189
0.40147657
0.40143208
0.40138868
0.40134654
0.40130561
0.40126566
0.40122647
0.40118795
0.40115002
0.40111268
0.40107581
0.40103946
0.40100348
0.40096793
0.40093264
0.40089773
0.40086297
0.40082854
0.40079413
0.40076003
0.40072581
0.40069189
0.40065773
0.40062379
0.4005896
0.40055547
0.40052112
0.40048667
0.40045198
0.40041707
0.40038186
0.40034634
0.40031044
0.40027411
0.40023732
0.40020003
0.40016224
0.40012391
0.40008493
0.40004505
0.40000402
0.39996176
0.39991829
0.39987366
0.39982796
0.39978119
0.39973333
0.39968424
0.39963369
0.3995813
0.39952692
0.39947044
0.3994116
0.39935006
0.39928559
0.39921793
0.39914652
0.39907058
0.39898971
0.39890471
0.39881373
0.39871464
6.8599293
1.4285448
0.54186266
0.43141654
0.42061676
0.42007667
0.42051957
0.42061754
0.42056438
0.42049343
0.42042957
0.42037163
0.4203154
0.42026045
0.42020736
0.42015698
0.42011085
0.42006633
0.42002096
0.41997559
0.41993111
0.41988779
0.41984578
0.41980502
0.41976522
0.41972616
0.41968779
0.41965002
0.41961285
0.41957618
0.41954002
0.41950425
0.41946892
0.41943387
0.4193992
0.4193647
0.41933053
0.41929641
0.41926261
0.41922871
0.41919512
0.41916129
0.41912772
0.41909387
0.41906017
0.41902618
0.4189922
0.41895791
0.4189235
0.41888874
0.41885373
0.41881833
0.41878255
0.4187463
0.41870957
0.41867233
0.41863464
0.41859642
0.41855739
0.41851716
0.41847561
0.41843277
0.41838868
0.4183435
0.41829728
0.41825006
0.41820171
0.41815205
0.4181006
0.41804712
0.41799159
0.41793376
0.41787329
0.41780986
0.41774333
0.41767319
0.41759857
0.41751862
0.41743498
0.41734586
0.41724812
6.5631559
1.3206136
0.53115879
0.44937057
0.44017928
0.44052897
0.4409104
0.44093185
0.44086209
0.44079544
0.44073536
0.44067983
0.44062507
0.44057174
0.44052056
0.44047202
0.44042793
0.44038509
0.440341
0.44029691
0.44025371
0.44021181
0.44017124
0.4401319
0.44009346
0.44005576
0.44001874
0.43998233
0.4399465
0.43991118
0.43987636
0.43984194
0.43980796
0.43977426
0.43974095
0.43970782
0.43967503
0.4396423
0.43960989
0.43957743
0.43954526
0.4395129
0.4394808
0.43944844
0.43941627
0.4393838
0.43935142
0.43931868
0.43928595
0.4392528
0.43921955
0.43918583
0.43915187
0.43911738
0.43908251
0.4390471
0.43901137
0.43897515
0.43893842
0.43890046
0.43886112
0.43882039
0.43877832
0.43873516
0.43869102
0.43864603
0.43860008
0.43855309
0.43850444
0.43845376
0.43840114
0.43834638
0.43828914
0.43822897
0.43816592
0.4380995
0.43802898
0.43795273
0.43787327
0.43778919
0.43769641
6.2852178
1.2011374
0.52474497
0.46807395
0.46260745
0.4631558
0.46334433
0.46330514
0.46323924
0.46318091
0.46312645
0.4630752
0.46302397
0.46297448
0.46292769
0.4628833
0.46284329
0.46280375
0.4627625
0.46272133
0.46268122
0.46264259
0.46260523
0.46256898
0.46253356
0.46249884
0.46246475
0.46243126
0.46239832
0.46236588
0.4623339
0.46230233
0.46227117
0.46224032
0.46220982
0.46217954
0.46214956
0.46211971
0.46209013
0.46206058
0.46203126
0.46200186
0.46197267
0.46194332
0.46191412
0.46188472
0.46185539
0.4618258
0.4617962
0.46176629
0.46173628
0.4617059
0.46167532
0.46164428
0.46161295
0.46158112
0.46154904
0.46151657
0.46148375
0.4614501
0.46141499
0.46137833
0.46134024
0.46130105
0.46126102
0.46122038
0.46117904
0.46113705
0.4610936
0.46104826
0.46100112
0.46095211
0.46090092
0.46084699
0.46079046
0.46073097
0.4606681
0.46059948
0.46052778
0.46045287
0.46036997
6.0262718
1.0674661
0.52355682
0.48951243
0.48766682
0.48809612
0.48813487
0.48807828
0.48802438
0.48797663
0.48793028
0.48788603
0.48784093
0.48779848
0.48775981
0.48772307
0.48768959
0.48765473
0.48761832
0.48758252
0.48754816
0.48751529
0.48748351
0.48745258
0.48742235
0.48739274
0.4873637
0.48733519
0.48730718
0.48727963
0.4872525
0.48722576
0.48719938
0.48717333
0.48714758
0.48712209
0.48709685
0.4870718
0.48704696
0.48702224
0.48699769
0.48697319
0.48694882
0.48692443
0.48690015
0.48687579
0.48685148
0.48682704
0.48680258
0.48677795
0.48675324
0.48672829
0.48670318
0.48667778
0.48665212
0.48662613
0.48659995
0.48657356
0.48654695
0.48651986
0.48649173
0.48646177
0.48643028
0.48639771
0.48636447
0.48633095
0.48629717
0.48626311
0.48622799
0.4861913
0.48615298
0.48611316
0.48607167
0.48602789
0.48598186
0.48593356
0.48588271
0.48582729
0.48576772
0.48570732
0.48564088
5.7864028
0.91685154
0.52866181
0.515321
0.51550725
0.515696
0.51566295
0.51561833
0.51558088
0.51554642
0.5155125
0.51547915
0.51544445
0.5154134
0.51538783
0.51536368
0.51533946
0.51531061
0.51528221
0.51525566
0.51523067
0.51520675
0.51518354
0.51516091
0.51513878
0.51511714
0.51509594
0.51507519
0.51505483
0.51503487
0.51501525
0.51499597
0.51497699
0.51495831
0.51493989
0.51492172
0.51490376
0.51488602
0.51486845
0.51485106
0.51483382
0.51481671
0.5147997
0.5147828
0.51476597
0.5147492
0.51473248
0.51471577
0.51469906
0.51468233
0.51466556
0.51464873
0.51463181
0.51461477
0.51459759
0.51458026
0.51456286
0.51454546
0.51452806
0.51451047
0.51449232
0.51447264
0.51445128
0.51442888
0.51440598
0.51438318
0.5143607
0.51433829
0.51431541
0.51429143
0.51426623
0.51423993
0.51421275
0.51418407
0.51415358
0.51412186
0.51408846
0.51405277
0.51401162
0.51397236
0.51392985
5.5657239
0.7438616
0.5450155
0.54556368
0.5462566
0.54626937
0.54624308
0.54622267
0.54620618
0.54619
0.54617451
0.546158
0.54614116
0.54612623
0.54611529
0.54610759
0.54609859
0.54608094
0.54606547
0.54605292
0.54604143
0.54603032
0.54601955
0.54600905
0.54599886
0.54598894
0.54597929
0.54596991
0.5459608
0.54595192
0.54594329
0.54593488
0.54592669
0.54591871
0.54591092
0.54590334
0.54589593
0.54588872
0.54588166
0.54587478
0.54586804
0.54586147
0.54585502
0.54584875
0.54584257
0.54583654
0.5458306
0.5458248
0.54581907
0.54581346
0.5458079
0.54580245
0.54579703
0.5457917
0.54578638
0.54578114
0.54577598
0.54577106
0.54576639
0.5457619
0.54575732
0.54575197
0.54574509
0.54573785
0.54573045
0.54572361
0.54571718
0.54571107
0.54570486
0.54569856
0.54569166
0.54568451
0.54567694
0.54566921
0.54566045
0.54565173
0.54564216
0.5456326
0.54561921
0.54560864
0.54559675
0.16815249
0.16815254
0.16815618
0.168156
0.16815712
0.16815777
0.16815865
0.1681595
0.16816038
0.16816128
0.16816218
0.16816309
0.168164
0.16816492
0.16816584
0.16816676
0.16816766
0.16816856
0.16816945
0.16817032
0.16817118
0.16817203
0.16817285
0.16817366
0.16817446
0.16817525
0.16817602
0.16817678
0.16817753
0.16817825
0.16817892
0.16817954
0.16818009
0.16818058
0.16818099
0.16818133
0.16818159
0.1681818
0.16818194
0.16818204
0.16818207
0.16818205
0.16818196
0.16818182
0.1681816
0.16818132
0.16818097
0.16818055
0.16818007
0.16817952
0.16817891
0.16817822
0.16817748
0.16817668
0.16817584
0.16817498
0.16817406
0.16817301
0.16817159
0.16816938
0.16816585
0.16816101
0.16815713
0.16816297
0.16820266
0.16833291
0.16867418
0.16946401
0.1711448
0.17450455
0.1809038
0.19265429
0.21368988
0.25086217
0.31676951
0.43698608
0.6718173
1.192997
2.585397
7.8395086
42.012169
0.16990676
0.16990701
0.16990974
0.16990985
0.16991084
0.16991155
0.16991243
0.16991329
0.16991418
0.16991508
0.16991599
0.16991691
0.16991783
0.16991875
0.16991967
0.1699206
0.1699215
0.16992241
0.16992329
0.16992417
0.16992503
0.16992588
0.16992672
0.16992754
0.16992834
0.16992914
0.16992992
0.1699307
0.16993146
0.16993218
0.16993286
0.16993349
0.16993405
0.16993453
0.16993494
0.16993527
0.16993554
0.16993574
0.16993588
0.16993597
0.169936
0.16993598
0.16993589
0.16993574
0.16993552
0.16993523
0.16993487
0.16993445
0.16993397
0.16993341
0.16993279
0.1699321
0.16993135
0.16993055
0.16992972
0.16992885
0.16992793
0.16992688
0.16992547
0.16992328
0.16991979
0.1699149
0.16991055
0.16991455
0.16994886
0.17006552
0.17037602
0.17110198
0.17265962
0.17579686
0.18181572
0.19294422
0.21299367
0.24861935
0.31204519
0.42801003
0.65491439
1.1596974
2.5082621
7.5889912
40.340009
0.17176886
0.17176907
0.17177156
0.17177172
0.1717727
0.17177344
0.17177432
0.1717752
0.1717761
0.17177702
0.17177793
0.17177887
0.1717798
0.17178074
0.17178167
0.1717826
0.17178352
0.17178443
0.17178532
0.17178621
0.17178708
0.17178794
0.17178878
0.17178961
0.17179042
0.17179123
0.17179203
0.17179282
0.17179359
0.17179432
0.17179501
0.17179564
0.1717962
0.17179669
0.1717971
0.17179744
0.17179771
0.17179791
0.17179806
0.17179815
0.17179819
0.17179816
0.17179808
0.17179793
0.17179772
0.17179743
0.17179708
0.17179667
0.17179619
0.17179564
0.17179502
0.17179434
0.1717936
0.1717928
0.17179197
0.1717911
0.1717902
0.17178921
0.17178793
0.17178597
0.17178277
0.17177791
0.17177241
0.17177184
0.17179347
0.17188037
0.17212803
0.17273163
0.17406616
0.17681884
0.18220607
0.19233708
0.21085665
0.24417372
0.30410191
0.41453413
0.63166724
1.1158157
2.41108
7.2935326
38.704724
0.17374808
0.17374834
0.17375053
0.17375078
0.17375172
0.17375249
0.17375338
0.17375428
0.17375519
0.17375611
0.17375704
0.17375799
0.17375893
0.17375988
0.17376081
0.17376175
0.17376268
0.17376359
0.17376449
0.17376539
0.17376626
0.17376713
0.17376797
0.17376881
0.17376964
0.17377046
0.17377127
0.17377206
0.17377284
0.17377358
0.17377428
0.17377491
0.17377548
0.17377597
0.17377638
0.17377672
0.17377699
0.17377719
0.17377734
0.17377743
0.17377747
0.17377745
0.17377737
0.17377722
0.17377701
0.17377673
0.17377638
0.17377597
0.17377549
0.17377495
0.17377434
0.17377366
0.17377292
0.17377213
0.1737713
0.17377043
0.17376954
0.17376857
0.17376738
0.1737656
0.17376268
0.17375802
0.17375206
0.17374882
0.17376205
0.17382776
0.17402831
0.17453617
0.17568966
0.17812031
0.1829641
0.19221747
0.20936582
0.2405808
0.29727674
0.40253205
0.61049497
1.0752885
2.3193928
7.0079996
37.107298
0.17585417
0.17585451
0.17585645
0.17585676
0.17585768
0.17585848
0.17585938
0.17586029
0.1758612
0.17586214
0.17586308
0.17586403
0.17586498
0.17586594
0.17586689
0.17586783
0.17586876
0.17586968
0.17587059
0.17587148
0.17587236
0.17587323
0.17587409
0.17587493
0.17587577
0.1758766
0.17587742
0.17587822
0.17587901
0.17587976
0.17588046
0.17588109
0.17588166
0.17588215
0.17588257
0.17588291
0.17588318
0.17588338
0.17588353
0.17588362
0.17588367
0.17588365
0.17588357
0.17588343
0.17588322
0.17588294
0.1758826
0.17588219
0.17588171
0.17588117
0.17588057
0.1758799
0.17587917
0.17587838
0.17587755
0.17587668
0.1758758
0.17587486
0.17587375
0.17587215
0.17586952
0.17586515
0.17585894
0.17585351
0.17585932
0.17590566
0.17606223
0.1764792
0.17745832
0.17957465
0.18388152
0.19225872
0.20802763
0.23711936
0.29055211
0.39060675
0.58942341
1.0350811
2.2291366
6.728716
35.548657
0.17809814
0.17809853
0.17810023
0.17810061
0.17810151
0.17810234
0.17810324
0.17810416
0.17810509
0.17810604
0.17810698
0.17810794
0.1781089
0.17810987
0.17811082
0.17811177
0.1781127
0.17811362
0.17811453
0.17811543
0.17811632
0.17811719
0.17811805
0.17811891
0.17811975
0.17812058
0.17812141
0.17812223
0.17812302
0.17812378
0.17812448
0.17812512
0.17812568
0.17812617
0.17812659
0.17812693
0.1781272
0.17812741
0.17812756
0.17812765
0.1781277
0.17812768
0.17812761
0.17812747
0.17812726
0.17812699
0.17812665
0.17812624
0.17812577
0.17812524
0.17812464
0.17812398
0.17812325
0.17812247
0.17812164
0.17812078
0.17811989
0.17811897
0.17811793
0.1781165
0.17811416
0.17811016
0.17810401
0.17809715
0.17809727
0.17812767
0.17824648
0.17858301
0.17940389
0.1812286
0.18502765
0.19256244
0.20698772
0.2339922
0.28420187
0.37912135
0.56894681
0.99587432
2.1409992
6.4561114
34.029592
0.18049223
0.18049261
0.18049409
0.18049452
0.18049541
0.18049626
0.18049718
0.18049811
0.18049904
0.1805
0.18050095
0.18050192
0.18050288
0.18050385
0.18050481
0.18050576
0.18050669
0.18050762
0.18050853
0.18050943
0.18051032
0.1805112
0.18051206
0.18051292
0.18051377
0.18051461
0.18051545
0.18051627
0.18051707
0.18051783
0.18051853
0.18051917
0.18051974
0.18052022
0.18052064
0.18052098
0.18052125
0.18052146
0.18052161
0.1805217
0.18052175
0.18052174
0.18052167
0.18052153
0.18052133
0.18052106
0.18052072
0.18052032
0.18051986
0.18051933
0.18051874
0.18051808
0.18051737
0.18051659
0.18051577
0.18051491
0.18051403
0.18051312
0.18051213
0.18051085
0.1805088
0.18050521
0.18049932
0.18049163
0.1804874
0.18050464
0.18059088
0.1808559
0.1815326
0.18308589
0.18640309
0.19312505
0.20623611
0.2311795
0.27819168
0.36802121
0.54898225
0.95755902
2.0549171
6.1902629
32.550778
0.18305011
0.18305038
0.18305167
0.18305215
0.18305304
0.18305391
0.18305484
0.18305578
0.18305672
0.18305768
0.18305864
0.18305961
0.18306058
0.18306155
0.18306251
0.18306346
0.1830644
0.18306533
0.18306624
0.18306714
0.18306803
0.18306891
0.18306978
0.18307064
0.18307149
0.18307234
0.18307318
0.183074
0.18307481
0.18307556
0.18307627
0.1830769
0.18307747
0.18307796
0.18307837
0.18307871
0.18307898
0.18307919
0.18307934
0.18307943
0.18307948
0.18307947
0.18307941
0.18307927
0.18307908
0.18307881
0.18307848
0.18307808
0.18307763
0.1830771
0.18307652
0.18307587
0.18307517
0.1830744
0.18307358
0.18307273
0.18307185
0.18307095
0.18307001
0.18306885
0.18306707
0.18306393
0.18305848
0.18305048
0.18304318
0.18304995
0.18310878
0.1833114
0.18385868
0.18516242
0.188027
0.1939707
0.20580328
0.2287182
0.27256398
0.35735337
0.52958226
0.92019301
1.9709445
5.9312718
31.11278
0.18578696
0.18578717
0.18578832
0.18578884
0.18578974
0.18579063
0.18579156
0.18579251
0.18579346
0.18579442
0.18579538
0.18579636
0.18579733
0.1857983
0.18579926
0.18580021
0.18580115
0.18580207
0.18580298
0.18580388
0.18580477
0.18580565
0.18580652
0.18580738
0.18580824
0.18580909
0.18580993
0.18581076
0.18581156
0.18581232
0.18581302
0.18581365
0.18581421
0.1858147
0.18581511
0.18581545
0.18581572
0.18581592
0.18581607
0.18581617
0.18581622
0.18581622
0.18581615
0.18581602
0.18581583
0.18581557
0.18581524
0.18581486
0.18581441
0.18581389
0.18581332
0.18581268
0.18581198
0.18581123
0.18581042
0.18580957
0.18580869
0.1858078
0.18580689
0.18580584
0.18580431
0.18580161
0.18579672
0.18578885
0.18577959
0.18577833
0.18581458
0.18596352
0.18639597
0.18747247
0.18991519
0.19511821
0.20571205
0.22663456
0.26734603
0.34714326
0.51077036
0.88380171
1.8891169
5.6792209
29.716045
0.18872012
0.18872028
0.18872132
0.18872189
0.1887228
0.1887237
0.18872464
0.18872559
0.18872654
0.18872751
0.18872848
0.18872945
0.18873042
0.18873139
0.18873235
0.1887333
0.18873423
0.18873515
0.18873606
0.18873695
0.18873784
0.18873871
0.18873958
0.18874044
0.18874129
0.18874214
0.18874299
0.18874382
0.18874462
0.18874537
0.18874607
0.1887467
0.18874725
0.18874773
0.18874814
0.18874847
0.18874874
0.18874895
0.1887491
0.18874919
0.18874924
0.18874924
0.18874918
0.18874906
0.18874887
0.18874862
0.1887483
0.18874792
0.18874747
0.18874697
0.18874641
0.18874578
0.1887451
0.18874436
0.18874356
0.18874272
0.18874185
0.18874096
0.18874007
0.1887391
0.18873779
0.18873553
0.18873128
0.18872388
0.18871362
0.18870653
0.18872469
0.18882834
0.18916037
0.19003236
0.19208576
0.19658937
0.20598951
0.22496088
0.26257252
0.33742416
0.49257814
0.84841925
1.8094739
5.4341746
28.360905
0.19186915
0.19186927
0.19187024
0.19187085
0.19187177
0.19187269
0.19187363
0.19187459
0.19187554
0.1918765
0.19187747
0.19187844
0.19187941
0.19188037
0.19188132
0.19188226
0.19188319
0.1918841
0.191885
0.19188589
0.19188677
0.19188764
0.1918885
0.19188935
0.1918902
0.19189105
0.19189189
0.19189272
0.19189351
0.19189426
0.19189495
0.19189557
0.19189612
0.19189659
0.19189699
0.19189732
0.19189759
0.19189779
0.19189794
0.19189804
0.19189809
0.19189809
0.19189803
0.19189792
0.19189773
0.19189749
0.19189718
0.1918968
0.19189637
0.19189588
0.19189533
0.19189472
0.19189405
0.19189333
0.19189255
0.19189172
0.19189085
0.19188997
0.19188909
0.19188818
0.19188705
0.1918852
0.19188162
0.19187496
0.1918645
0.19185353
0.19185773
0.191924
0.19216962
0.19285994
0.19455793
0.19840689
0.20666411
0.22373177
0.25828085
0.32823053
0.4750361
0.81407961
1.7320579
5.1961887
27.047584
0.19525627
0.19525636
0.19525728
0.19525794
0.19525887
0.1952598
0.19526075
0.1952617
0.19526265
0.19526361
0.19526457
0.19526554
0.1952665
0.19526745
0.19526839
0.19526931
0.19527023
0.19527113
0.19527201
0.19527289
0.19527376
0.19527461
0.19527546
0.19527631
0.19527715
0.195278
0.19527883
0.19527965
0.19528044
0.19528118
0.19528185
0.19528246
0.195283
0.19528346
0.19528385
0.19528418
0.19528444
0.19528464
0.19528479
0.19528488
0.19528494
0.19528494
0.19528489
0.19528478
0.1952846
0.19528436
0.19528406
0.1952837
0.19528328
0.19528281
0.19528227
0.19528168
0.19528103
0.19528032
0.19527956
0.19527875
0.1952779
0.19527703
0.19527616
0.19527529
0.1952743
0.19527281
0.1952699
0.19526415
0.19525414
0.19524098
0.19523493
0.1952712
0.19544385
0.19597515
0.19735261
0.20059502
0.20776644
0.22298547
0.25451338
0.31960063
0.45817532
0.78081782
1.6569166
4.9652993
25.776193
0.19890675
0.19890686
0.19890775
0.19890846
0.1989094
0.19891034
0.19891128
0.19891223
0.19891318
0.19891413
0.19891508