/*--------------------------------*- C++ -*----------------------------------*\
| =========                 |                                                 |
| \\      /  F ield         | OpenFOAM: The Open Source CFD Toolbox           |
|  \\    /   O peration     | Version:  v2006                                 |
|   \\  /    A nd           | Website:  www.openfoam.com                      |
|    \\/     M anipulation  |                                                 |
\*---------------------------------------------------------------------------*/
FoamFile
{
    version     2.0;
    format      ascii;
    class       surfaceScalarField;
    location    "6000";
    object      phi;
}
// * * * * * * * * * * * * * * * * * * * * * * * * * * * * * * * * * * * * * //

dimensions      [1 0 -1 0 0 0 0];
oriented        oriented;


internalField   nonuniform List<scalar> 
204841
(
6.5916141e-06
-0.00020806164
0.00020147004
1.1979383e-05
-0.00019927903
0.00019389127
1.6373247e-05
-0.00019137051
0.00018697666
1.9938979e-05
-0.0001841698
0.00018060408
2.2809274e-05
-0.00017756869
0.0001746984
2.5092474e-05
-0.00017149199
0.0001692088
2.6877612e-05
-0.00016588228
0.00016409715
2.8238387e-05
-0.00016069293
0.00015933216
2.9236036e-05
-0.00015588415
0.00015488652
2.9921793e-05
-0.00015142178
0.00015073603
3.033869e-05
-0.00014727624
0.00014685936
3.0523105e-05
-0.00014342094
0.00014323654
3.0505918e-05
-0.00013983239
0.00013984959
3.0313361e-05
-0.00013649177
0.00013668434
2.9967983e-05
-0.00013337808
0.00013372347
2.9489072e-05
-0.00013047671
0.00013095563
2.8893245e-05
-0.00012777258
0.00012836842
2.8194886e-05
-0.00012525244
0.00012595081
2.7406469e-05
-0.00012290441
0.00012369283
2.6538857e-05
-0.00012071811
0.00012158574
2.5601523e-05
-0.00011868385
0.0001196212
2.4602771e-05
-0.00011679309
0.00011779186
2.3549867e-05
-0.00011503793
0.00011609084
2.2449219e-05
-0.00011341131
0.00011451197
2.1306452e-05
-0.00011190685
0.00011304963
2.0126556e-05
-0.00011051872
0.00011169862
1.891394e-05
-0.00010924162
0.00011045424
1.7672539e-05
-0.00010807092
0.00010931233
1.6405857e-05
-0.00010700231
0.000108269
1.5117048e-05
-0.00010603201
0.00010732083
1.380893e-05
-0.00010515666
0.00010646479
1.2484065e-05
-0.00010437322
0.00010569809
1.1144766e-05
-0.00010367903
0.00010501834
9.793161e-06
-0.00010307176
0.00010442337
8.4312008e-06
-0.0001025494
0.00010391137
7.0607103e-06
-0.00010211026
0.00010348076
5.6833848e-06
-0.00010175288
0.0001031302
4.3008351e-06
-0.00010147609
0.00010285865
2.9145974e-06
-0.00010127902
0.00010266526
1.5261594e-06
-0.00010116103
0.00010254947
1.3697836e-07
-0.00010112173
0.00010251091
-1.251495e-06
-0.000101161
0.00010254948
-2.6377987e-06
-0.00010127897
0.00010266528
-4.0204426e-06
-0.00010147603
0.00010285867
-5.3978872e-06
-0.00010175278
0.00010313023
-6.7685251e-06
-0.00010211014
0.00010348078
-8.1306564e-06
-0.00010254925
0.00010391138
-9.4824621e-06
-0.00010307156
0.00010442336
-1.0821992e-05
-0.00010367877
0.0001050183
-1.2147127e-05
-0.00010437288
0.00010569801
-1.3455547e-05
-0.00010515624
0.00010646466
-1.4744697e-05
-0.00010603151
0.00010732066
-1.6011748e-05
-0.00010700174
0.00010826879
-1.7253563e-05
-0.00010807028
0.00010931209
-1.8466626e-05
-0.00010924095
0.00011045401
-1.9647021e-05
-0.00011051803
0.00011169842
-2.0790316e-05
-0.00011190619
0.00011304949
-2.1891534e-05
-0.00011341069
0.0001145119
-2.2945029e-05
-0.00011503735
0.00011609084
-2.3944417e-05
-0.00011679251
0.0001177919
-2.4882423e-05
-0.00011868323
0.00011962123
-2.5750776e-05
-0.00012071739
0.00012158573
-2.6539992e-05
-0.00012290356
0.00012369277
-2.7239243e-05
-0.00012525147
0.00012595071
-2.783603e-05
-0.00012777153
0.00012836832
-2.831599e-05
-0.00013047564
0.00013095559
-2.8662463e-05
-0.00013337706
0.00013372353
-2.885619e-05
-0.0001364908
0.00013668452
-2.88746e-05
-0.00013983143
0.00013984984
-2.8691524e-05
-0.00014341991
0.00014323682
-2.8276075e-05
-0.00014727506
0.00014685962
-2.7591951e-05
-0.00015142041
0.00015073628
-2.6596104e-05
-0.00015588265
0.00015488681
-2.5237353e-05
-0.00016069137
0.00015933261
-2.345436e-05
-0.0001658808
0.00016409781
-2.1173334e-05
-0.00017149035
0.00016920931
-1.8304769e-05
-0.00017756546
0.0001746969
-1.4739448e-05
-0.00018415911
0.00018059378
-1.0342939e-05
-0.00019133372
0.00018693722
-4.9483507e-06
-0.00019916374
0.00019376914
-0.00020773874
0.00020113671
1.6536822e-06
6.6065412e-06
-0.0002146682
1.2005979e-05
-0.00020467848
1.6409216e-05
-0.00019577377
1.9982239e-05
-0.00018774283
2.2857848e-05
-0.00018044431
2.5144758e-05
-0.00017377891
2.6932298e-05
-0.00016766984
2.8294365e-05
-0.00016205501
2.9292372e-05
-0.00015688218
2.9977698e-05
-0.00015210712
3.0393485e-05
-0.00014769205
3.0576208e-05
-0.00014360368
3.0556822e-05
-0.00013981302
3.0361627e-05
-0.0001362966
3.001323e-05
-0.0001330297
2.9530969e-05
-0.00012999446
2.8931518e-05
-0.00012717315
2.8229306e-05
-0.00012455024
2.7436843e-05
-0.00012211196
2.6565021e-05
-0.0001198463
2.5623334e-05
-0.00011774219
2.462011e-05
-0.00011578988
2.3562628e-05
-0.00011398047
2.2457299e-05
-0.000112306
2.1309765e-05
-0.00011075934
2.012502e-05
-0.00010933399
1.8907488e-05
-0.0001080241
1.7661104e-05
-0.00010682455
1.6389385e-05
-0.00010573061
1.5095486e-05
-0.00010473813
1.3782248e-05
-0.00010384344
1.2452237e-05
-0.00010304322
1.1107779e-05
-0.00010233459
9.7509964e-06
-0.00010171499
8.3838515e-06
-0.00010118227
7.0081587e-06
-0.00010073459
5.6256282e-06
-0.00010037036
4.2378645e-06
-0.00010008835
2.8464176e-06
-9.9887588e-05
1.4527678e-06
-9.9767395e-05
5.8389287e-08
-9.9727362e-05
-1.3352806e-06
-9.976735e-05
-2.7267639e-06
-9.9887502e-05
-4.1145846e-06
-0.00010008823
-5.4971842e-06
-0.00010037019
-6.8729744e-06
-0.00010073437
-8.2402271e-06
-0.000101182
-9.5971516e-06
-0.00010171465
-1.0941751e-05
-0.00010233418
-1.2271944e-05
-0.00010304271
-1.3585362e-05
-0.00010384283
-1.487949e-05
-0.00010473741
-1.6151439e-05
-0.00010572979
-1.7398114e-05
-0.00010682363
-1.8615938e-05
-0.00010802312
-1.9801034e-05
-0.00010933296
-2.0948909e-05
-0.00011075831
-2.2054627e-05
-0.00011230499
-2.3112475e-05
-0.00011397949
-2.4116107e-05
-0.0001157889
-2.5058182e-05
-0.00011774114
-2.5930457e-05
-0.00011984513
-2.6723388e-05
-0.00012211062
-2.742616e-05
-0.00012454872
-2.8026199e-05
-0.00012717148
-2.8509134e-05
-0.00012999273
-2.8858228e-05
-0.00013302796
-2.9054196e-05
-0.00013629485
-2.9074381e-05
-0.00013981124
-2.8892555e-05
-0.00014360175
-2.8477736e-05
-0.00014768988
-2.7793541e-05
-0.00015210463
-2.6796793e-05
-0.00015687939
-2.5436188e-05
-0.000162052
-2.3650216e-05
-0.00016766676
-2.1364901e-05
-0.00017377569
-1.8490485e-05
-0.00018043986
-1.4917447e-05
-0.00018773217
-1.0511008e-05
-0.00019574015
-5.1038072e-06
-0.00020457096
-0.00021435663
1.5140931e-06
6.62215e-06
-0.00022129037
1.2033902e-05
-0.00021009024
1.6447001e-05
-0.00020018688
2.0027439e-05
-0.00019132328
2.2908504e-05
-0.0001833254
2.5199261e-05
-0.00017606969
2.6989326e-05
-0.00016945992
2.8352816e-05
-0.00016341851
2.9351326e-05
-0.0001578807
3.0036371e-05
-0.00015279218
3.0451217e-05
-0.00014810691
3.0632435e-05
-0.00014378492
3.0611064e-05
-0.00013979167
3.0413448e-05
-0.000136099
3.0062252e-05
-0.00013267852
2.9576848e-05
-0.00012950908
2.8973963e-05
-0.00012657028
2.8268062e-05
-0.00012384436
2.7471709e-05
-0.00012131563
2.659582e-05
-0.00011897043
2.5649933e-05
-0.00011679632
2.4642378e-05
-0.00011478235
2.3580467e-05
-0.00011291857
2.2470611e-05
-0.00011119616
2.1318472e-05
-0.00010960721
2.0129039e-05
-0.00010814458
1.8906762e-05
-0.00010680184
1.7655561e-05
-0.00010557337
1.6378977e-05
-0.00010445404
1.5080141e-05
-0.00010343932
1.3761929e-05
-0.00010252524
1.242689e-05
-0.00010170821
1.1077406e-05
-0.00010098511
9.7155728e-06
-0.00010035318
8.3433767e-06
-9.9810084e-05
6.9626e-06
-9.9353832e-05
5.5749754e-06
-9.8982743e-05
4.1820911e-06
-9.8695486e-05
2.7855239e-06
-9.8491029e-05
1.3867493e-06
-9.8368641e-05
-1.2739451e-08
-9.8327882e-05
-1.4115122e-06
-9.83686e-05
-2.8080778e-06
-9.8490942e-05
-4.2009848e-06
-9.8695343e-05
-5.5886554e-06
-9.8982526e-05
-6.9695247e-06
-9.935353e-05
-8.3418352e-06
-9.9809689e-05
-9.7038277e-06
-0.00010035269
-1.1053465e-05
-0.00010098453
-1.238867e-05
-0.00010170753
-1.3707031e-05
-0.00010252446
-1.5006043e-05
-0.00010343843
-1.6282803e-05
-0.00010445302
-1.7534223e-05
-0.00010557224
-1.8756718e-05
-0.00010680062
-1.9946401e-05
-0.0001081433
-2.1098781e-05
-0.00010960593
-2.2208914e-05
-0.00011119488
-2.3271088e-05
-0.00011291731
-2.4278943e-05
-0.00011478107
-2.5225115e-05
-0.00011679496
-2.6101337e-05
-0.00011896893
-2.6898015e-05
-0.00012131393
-2.7604306e-05
-0.00012384245
-2.8207581e-05
-0.0001265682
-2.8693446e-05
-0.00012950689
-2.9045109e-05
-0.00013267628
-2.9243259e-05
-0.00013609673
-2.926516e-05
-0.00013978932
-2.9084533e-05
-0.0001437824
-2.8670293e-05
-0.00014810411
-2.7985971e-05
-0.00015278897
-2.6988274e-05
-0.00015787708
-2.5625765e-05
-0.00016341452
-2.3836774e-05
-0.00016945574
-2.1547111e-05
-0.00017606537
-1.8666813e-05
-0.00018332015
-1.5086027e-05
-0.00019131297
-1.0669682e-05
-0.00020015649
-5.2498677e-06
-0.00020999079
-0.00022099027
1.3837792e-06
6.6377475e-06
-0.00022792811
1.2061787e-05
-0.00021551428
1.6484881e-05
-0.00020460997
2.0072944e-05
-0.00019491134
2.295966e-05
-0.0001862121
2.5254479e-05
-0.0001783645
2.7047305e-05
-0.00017125274
2.8412453e-05
-0.00016478366
2.9411686e-05
-0.00015887993
3.009665e-05
-0.00015347714
3.0510753e-05
-0.00014852101
3.0690669e-05
-0.00014396483
3.0667522e-05
-0.00013976852
3.0467721e-05
-0.0001358992
3.0113986e-05
-0.00013232478
2.9625723e-05
-0.00012902081
2.9019703e-05
-0.00012596425
2.8310409e-05
-0.00012313507
2.7510449e-05
-0.00012051566
2.6630751e-05
-0.00011809073
2.5680893e-05
-0.00011584645
2.4669221e-05
-0.00011377068
2.3603075e-05
-0.00011185242
2.2488873e-05
-0.00011008196
2.1332304e-05
-0.00010845064
2.0138361e-05
-0.00010695064
1.8911511e-05
-0.00010557498
1.7655683e-05
-0.00010431755
1.6374432e-05
-0.00010317277
1.5070889e-05
-0.00010213578
1.3747919e-05
-0.00010120225
1.2408068e-05
-0.00010036836
1.1053716e-05
-9.963075e-05
9.686987e-06
-9.8986456e-05
8.3098763e-06
-9.8432962e-05
6.9241778e-06
-9.7968135e-05
5.5316242e-06
-9.7590178e-05
4.1338061e-06
-9.7297669e-05
2.7322954e-06
-9.7089507e-05
1.3285687e-06
-9.6964916e-05
-7.5874642e-08
-9.6923426e-05
-1.4796008e-06
-9.6964876e-05
-2.8811139e-06
-9.7089415e-05
-4.2789539e-06
-9.7297507e-05
-5.6715346e-06
-9.7589929e-05
-7.0572782e-06
-9.7967791e-05
-8.4344335e-06
-9.8432519e-05
-9.801221e-06
-9.8985907e-05
-1.1155635e-05
-9.9630105e-05
-1.2495554e-05
-0.00010036762
-1.3818603e-05
-0.0001012014
-1.5122235e-05
-0.0001021348
-1.6403598e-05
-0.00010317165
-1.7659548e-05
-0.00010431629
-1.8886551e-05
-0.00010557361
-2.008066e-05
-0.00010694919
-2.1237435e-05
-0.00010844915
-2.2351849e-05
-0.00011008047
-2.3418232e-05
-0.00011185092
-2.4430137e-05
-0.00011376917
-2.5380236e-05
-0.00011584486
-2.6260169e-05
-0.000118089
-2.7060359e-05
-0.00012051374
-2.7769877e-05
-0.00012313294
-2.8376128e-05
-0.00012596194
-2.8864639e-05
-0.00012901838
-2.9218638e-05
-0.00013232228
-2.9418712e-05
-0.00013589665
-2.9442138e-05
-0.00013976589
-2.926251e-05
-0.00014396203
-2.8848722e-05
-0.00014851789
-2.8164144e-05
-0.00015347355
-2.7165424e-05
-0.00015887579
-2.580093e-05
-0.00016477901
-2.4008896e-05
-0.00017124777
-2.1714877e-05
-0.00017835938
-1.8828698e-05
-0.00018620632
-1.5240189e-05
-0.00019490147
-1.0813923e-05
-0.00020458275
-5.3815371e-06
-0.00021542317
-0.00022763955
1.2677408e-06
6.6533537e-06
-0.00023458145
1.2089656e-05
-0.00022095057
1.6522834e-05
-0.00020904313
2.0118568e-05
-0.00019850707
2.3011032e-05
-0.00018910455
2.5310001e-05
-0.00018066346
2.7105695e-05
-0.00017304842
2.8472626e-05
-0.00016615058
2.9472724e-05
-0.00015988001
3.0157755e-05
-0.00015416216
3.0571245e-05
-0.00014893448
3.0749964e-05
-0.00014414354
3.072513e-05
-0.00013974367
3.0523236e-05
-0.00013569729
3.0167051e-05
-0.00013196858
2.9676041e-05
-0.00012852979
2.906701e-05
-0.00012535521
2.8354478e-05
-0.00012242253
2.7551074e-05
-0.00011971224
2.6667753e-05
-0.0001172074
2.5714106e-05
-0.00011489279
2.4698491e-05
-0.00011275505
2.3628257e-05
-0.00011078217
2.2509846e-05
-0.00010896354
2.1348958e-05
-0.00010728973
2.0150613e-05
-0.00010575228
1.8919279e-05
-0.00010434363
1.7658923e-05
-0.00010305718
1.6373087e-05
-0.00010188693
1.5064937e-05
-0.00010082762
1.3737319e-05
-9.9874625e-05
1.2392798e-05
-9.9023828e-05
1.1033712e-05
-9.8271654e-05
9.6622164e-06
-9.7614949e-05
8.2803014e-06
-9.7051036e-05
6.8898041e-06
-9.6577628e-05
5.4924441e-06
-9.6192807e-05
4.0898356e-06
-9.5895052e-05
2.6835227e-06
-9.5683182e-05
1.2749844e-06
-9.555637e-05
-1.3429774e-07
-9.551413e-05
-1.5428672e-06
-9.5556299e-05
-2.9492308e-06
-9.5683039e-05
-4.3518894e-06
-9.589484e-05
-5.7492756e-06
-9.619253e-05
-7.1397649e-06
-9.6577292e-05
-8.5216459e-06
-9.7050629e-05
-9.8930886e-06
-9.7614452e-05
-1.1252139e-05
-9.827105e-05
-1.2596643e-05
-9.9023098e-05
-1.392429e-05
-9.9873752e-05
-1.5232478e-05
-0.00010082659
-1.6518393e-05
-0.00010188574
-1.7778829e-05
-0.00010305583
-1.9010286e-05
-0.00010434216
-2.0208761e-05
-0.0001057507
-2.1369827e-05
-0.00010728809
-2.2488414e-05
-0.00010896187
-2.3558855e-05
-0.00011078049
-2.4574647e-05
-0.00011275337
-2.5528461e-05
-0.00011489105
-2.6411898e-05
-0.00011720556
-2.72154e-05
-0.00011971024
-2.7927988e-05
-0.00012242034
-2.8537078e-05
-0.00012535286
-2.9028128e-05
-0.00012852732
-2.9384373e-05
-0.00013196604
-2.9586319e-05
-0.0001356947
-2.961122e-05
-0.00013974099
-2.9432576e-05
-0.00014414067
-2.9019231e-05
-0.00014893124
-2.8334424e-05
-0.00015415835
-2.7334701e-05
-0.00015987552
-2.5968269e-05
-0.00016614544
-2.4173207e-05
-0.00017304284
-2.1874866e-05
-0.00018065772
-1.8982807e-05
-0.00018909838
-1.5386575e-05
-0.0001984977
-1.0950352e-05
-0.00020901898
-5.5054138e-06
-0.00022086811
-0.00023430457
1.1596026e-06
6.6689515e-06
-0.00024125029
1.2117804e-05
-0.00022639932
1.6561125e-05
-0.00021348637
2.0164621e-05
-0.00020211048
2.3062902e-05
-0.00019200277
2.5366174e-05
-0.00018296667
2.7164854e-05
-0.00017484705
2.8533722e-05
-0.0001675194
2.9534835e-05
-0.0001608811
3.0220128e-05
-0.00015484741
3.0633183e-05
-0.00014934752
3.0810882e-05
-0.00014432121
3.0784489e-05
-0.00013971726
3.0580598e-05
-0.00013549338
3.0222027e-05
-0.00013161
2.9728334e-05
-0.00012803608
2.9116338e-05
-0.0001247432
2.8400631e-05
-0.00012170681
2.7593844e-05
-0.00011890545
2.6706983e-05
-0.00011632053
2.5749632e-05
-0.00011393543
2.4730186e-05
-0.0001117356
2.3655983e-05
-0.00010970796
2.2533491e-05
-0.00010784104
2.1368396e-05
-0.00010612464
2.0165752e-05
-0.00010454963
1.8930026e-05
-0.00010310791
1.7665211e-05
-0.00010179236
1.6374856e-05
-0.00010059657
1.5062157e-05
-9.9514913e-05
1.3729956e-05
-9.8542424e-05
1.2380845e-05
-9.7674711e-05
1.1017145e-05
-9.6907955e-05
9.641016e-06
-9.6238816e-05
8.2544327e-06
-9.5664453e-05
6.8592467e-06
-9.5182439e-05
5.4571813e-06
-9.479074e-05
4.0498647e-06
-9.4487735e-05
2.638849e-06
-9.4272164e-05
1.2256204e-06
-9.4143141e-05
-1.8835354e-07
-9.4100153e-05
-1.6016187e-06
-9.4143034e-05
-3.0126836e-06
-9.4271971e-05
-4.4200343e-06
-9.4487488e-05
-5.8221077e-06
-9.4790456e-05
-7.2172721e-06
-9.5182123e-05
-8.603813e-06
-9.566409e-05
-9.9798872e-06
-9.6238373e-05
-1.1343541e-05
-9.6907398e-05
-1.2692623e-05
-9.767401e-05
-1.4024814e-05
-9.8541564e-05
-1.5337522e-05
-9.951388e-05
-1.66279e-05
-0.00010059536
-1.7892759e-05
-0.00010179097
-1.9128545e-05
-0.00010310637
-2.0331281e-05
-0.00010454796
-2.1496476e-05
-0.00010612289
-2.2619085e-05
-0.00010783926
-2.3693388e-05
-0.00010970618
-2.4712917e-05
-0.00011173384
-2.5670301e-05
-0.00011393366
-2.6557151e-05
-0.00011631871
-2.7363868e-05
-0.00011890352
-2.8079476e-05
-0.00012170473
-2.8691339e-05
-0.00012474099
-2.9184907e-05
-0.00012803375
-2.9543352e-05
-0.00013160759
-2.9747166e-05
-0.00013549089
-2.9773515e-05
-0.00013971464
-2.9595833e-05
-0.00014431835
-2.9182835e-05
-0.00014934423
-2.8497681e-05
-0.0001548435
-2.7496775e-05
-0.00016087642
-2.6128223e-05
-0.000167514
-2.432993e-05
-0.00017484113
-2.20271e-05
-0.00018296056
-1.9129018e-05
-0.00019199646
-1.5524952e-05
-0.00020210178
-1.1078706e-05
-0.00021346522
-5.621157e-06
-0.00022632566
-0.00024098541
1.0596908e-06
6.6843185e-06
-0.00024793472
1.2145797e-05
-0.0002318609
1.6599143e-05
-0.0002179398
2.0210281e-05
-0.0002057217
2.3114402e-05
-0.00019490695
2.5421924e-05
-0.00018527425
2.7223648e-05
-0.00017664882
2.8594466e-05
-0.00016889026
2.9596671e-05
-0.00016188333
3.028228e-05
-0.00015553306
3.0695058e-05
-0.00014976031
3.0871899e-05
-0.00014449808
3.0844167e-05
-0.00013968954
3.0638441e-05
-0.00013528767
3.0277647e-05
-0.00013124921
2.9781352e-05
-0.0001275398
2.9166486e-05
-0.00012412834
2.8447652e-05
-0.00012098799
2.763756e-05
-0.00011809536
2.6747209e-05
-0.00011543019
2.5786235e-05
-0.00011297446
2.4763027e-05
-0.0001107124
2.3684959e-05
-0.00010862989
2.2558484e-05
-0.00010671458
2.1389319e-05
-0.00010495547
2.0182498e-05
-0.00010334282
1.8942516e-05
-0.00010186793
1.7673351e-05
-0.0001005232
1.6378591e-05
-9.9301812e-05
1.5061424e-05
-9.8197755e-05
1.3724735e-05
-9.7205738e-05
1.2371103e-05
-9.6321087e-05
1.1002887e-05
-9.5539741e-05
9.622218e-06
-9.4858155e-05
8.2310773e-06
-9.4273313e-05
6.8312894e-06
-9.3782661e-05
5.4245982e-06
-9.3384049e-05
4.0126238e-06
-9.307577e-05
2.5969556e-06
-9.2856495e-05
1.1790849e-06
-9.272528e-05
-2.3949949e-07
-9.2681568e-05
-1.6573616e-06
-9.2725181e-05
-3.0730109e-06
-9.2856322e-05
-4.4849572e-06
-9.307555e-05
-5.891629e-06
-9.3383785e-05
-7.2914143e-06
-9.3782346e-05
-8.6825689e-06
-9.4272936e-05
-1.0063256e-05
-9.4857695e-05
-1.143148e-05
-9.5539173e-05
-1.2785118e-05
-9.6320382e-05
-1.4121803e-05
-9.7204876e-05
-1.5438971e-05
-9.8196724e-05
-1.673372e-05
-9.9300605e-05
-1.8002891e-05
-0.00010052182
-1.9242879e-05
-0.00010186637
-2.0449739e-05
-0.00010334112
-2.1618941e-05
-0.00010495368
-2.2745471e-05
-0.00010671275
-2.3823569e-05
-0.00010862808
-2.4846788e-05
-0.00011071063
-2.5807717e-05
-0.00011297273
-2.6697979e-05
-0.00011542846
-2.7507926e-05
-0.00011809356
-2.8226583e-05
-0.00012098608
-2.8841256e-05
-0.00012412631
-2.9337391e-05
-0.00012753763
-2.9698064e-05
-0.00013124691
-2.990373e-05
-0.00013528523
-2.9931436e-05
-0.00013968693
-2.9754573e-05
-0.00014449523
-2.9341728e-05
-0.00014975707
-2.8656006e-05
-0.00015552924
-2.7653686e-05
-0.00016187874
-2.6282796e-05
-0.0001688849
-2.4481073e-05
-0.00017664284
-2.2173585e-05
-0.00018526806
-1.9269345e-05
-0.00019490069
-1.5657364e-05
-0.00020571377
-1.1201038e-05
-0.00021792154
-5.7308411e-06
-0.00023179587
-0.00024768208
9.6583897e-07
6.699854e-06
-0.00025463458
1.2174288e-05
-0.00023733535
1.6637919e-05
-0.00022240344
2.0257009e-05
-0.00020934081
2.3167154e-05
-0.00019781711
2.5479185e-05
-0.0001875863
2.7284109e-05
-0.00017845375
2.8657039e-05
-0.00017026321
2.9660425e-05
-0.00016288672
3.0346467e-05
-0.00015621912
3.0759041e-05
-0.00015017289
3.0935157e-05
-0.00014467421
3.0906227e-05
-0.00013966062
3.0698876e-05
-0.00013508034
3.0336044e-05
-0.00013088639
2.9837331e-05
-0.0001270411
2.9219714e-05
-0.00012351073
2.8497848e-05
-0.00012026614
2.7684496e-05
-0.00011728201
2.6790702e-05
-0.00011453641
2.5826141e-05
-0.0001120099
2.4799213e-05
-0.00010968549
2.3717317e-05
-0.000107548
2.2586913e-05
-0.00010558419
2.1413737e-05
-0.0001037823
2.0202819e-05
-0.00010213191
1.8958671e-05
-0.00010062378
1.768526e-05
-9.9249806e-05
1.6386189e-05
-9.8002742e-05
1.5064635e-05
-9.6876219e-05
1.3723523e-05
-9.5864626e-05
1.2365425e-05
-9.4963008e-05
1.0992739e-05
-9.4167053e-05
9.6075719e-06
-9.3473006e-05
8.2119365e-06
-9.2877676e-05
6.8076251e-06
-9.2378367e-05
5.3963992e-06
-9.1972821e-05
3.9798514e-06
-9.165924e-05
2.5595947e-06
-9.1436237e-05
1.1371228e-06
-9.1302825e-05
-2.8603945e-07
-9.1258404e-05
-1.7084662e-06
-9.1302771e-05
-3.1286547e-06
-9.1436132e-05
-4.5451389e-06
-9.1659082e-05
-5.9563287e-06
-9.1972593e-05
-7.3606414e-06
-9.2378051e-05
-8.7563116e-06
-9.2877262e-05
-1.0141531e-05
-9.3472494e-05
-1.1514257e-05
-9.4166441e-05
-1.2872375e-05
-9.4962284e-05
-1.4213469e-05
-9.5863775e-05
-1.5534985e-05
-9.6875227e-05
-1.6833992e-05
-9.8001591e-05
-1.8107351e-05
-9.9248477e-05
-1.9351443e-05
-0.00010062227
-2.0562332e-05
-0.00010213025
-2.1735478e-05
-0.00010378053
-2.2865867e-05
-0.00010558237
-2.3947727e-05
-0.00010754621
-2.4974609e-05
-0.00010968377
-2.5939071e-05
-0.00011200826
-2.6832736e-05
-0.00011453481
-2.7645914e-05
-0.00011728038
-2.8367607e-05
-0.00012026441
-2.8985053e-05
-0.00012350885
-2.9483652e-05
-0.00012703905
-2.9846405e-05
-0.00013088415
-3.0053713e-05
-0.00013507794
-3.0082558e-05
-0.00013965807
-2.9906299e-05
-0.0001446715
-2.9493475e-05
-0.00015016988
-2.8807125e-05
-0.0001562156
-2.7803408e-05
-0.00016288244
-2.6430225e-05
-0.0001702581
-2.4625117e-05
-0.00017844794
-2.2312985e-05
-0.0001875802
-1.9402589e-05
-0.00019781108
-1.5782672e-05
-0.0002093337
-1.1316229e-05
-0.00022238797
-5.8333606e-06
-0.00023727875
-0.00025439458
8.7914694e-07
6.715281e-06
-0.00026134986
1.2202753e-05
-0.00024282282
1.6676705e-05
-0.00022687739
2.0303746e-05
-0.00021296785
2.3220004e-05
-0.00020073336
2.5536578e-05
-0.00018990287
2.7344768e-05
-0.00018026194
2.8719878e-05
-0.00017163832
2.9724509e-05
-0.00016389135
3.0411035e-05
-0.00015690564
3.0823449e-05
-0.00015058531
3.0998875e-05
-0.00014484964
3.0968784e-05
-0.00013963052
3.0759877e-05
-0.00013487143
3.0395114e-05
-0.00013052162
2.9894141e-05
-0.00012654013
2.9273938e-05
-0.00012289053
2.8549204e-05
-0.0001195414
2.7732722e-05
-0.00011646553
2.6835596e-05
-0.00011363929
2.5867518e-05
-0.00011104182
2.4836941e-05
-0.00010865491
2.3751271e-05
-0.00010646233
2.2617e-05
-0.00010444992
2.1439867e-05
-0.00010260516
2.0224924e-05
-0.00010091698
1.8976686e-05
-9.9375542e-05
1.7699134e-05
-9.797226e-05
1.6395858e-05
-9.6699462e-05
1.507004e-05
-9.5550407e-05
1.3724595e-05
-9.4519176e-05
1.2362119e-05
-9.3600538e-05
1.0985013e-05
-9.2789941e-05
9.5954134e-06
-9.2083414e-05
8.1953326e-06
-9.1477589e-05
6.7865827e-06
-9.0969624e-05
5.3709059e-06
-9.0557139e-05
3.9499072e-06
-9.0238246e-05
2.5251639e-06
-9.0011489e-05
1.0981835e-06
-8.987585e-05
-3.2951347e-07
-8.9830703e-05
-1.75646e-06
-8.987583e-05
-3.1811566e-06
-9.0011432e-05
-4.6021232e-06
-9.0238123e-05
-6.0177781e-06
-9.0556933e-05
-7.4265154e-06
-9.0969322e-05
-8.8265885e-06
-9.1477183e-05
-1.0216188e-05
-9.2082904e-05
-1.1593281e-05
-9.2789341e-05
-1.2955719e-05
-9.3599856e-05
-1.4301086e-05
-9.45184e-05
-1.562681e-05
-9.5549512e-05
-1.6929979e-05
-9.6698415e-05
-1.820743e-05
-9.7971035e-05
-1.9455568e-05
-9.9374129e-05
-2.0670427e-05
-0.00010091539
-2.1847483e-05
-0.00010260346
-2.2981691e-05
-0.00010444817
-2.4067289e-05
-0.00010646061
-2.509779e-05
-0.00010865327
-2.6065759e-05
-0.00011104028
-2.6962756e-05
-0.00011363782
-2.7779073e-05
-0.00011646405
-2.8503648e-05
-0.00011953984
-2.912369e-05
-0.00012288881
-2.9624531e-05
-0.00012653821
-2.9989166e-05
-0.0001305195
-3.0197959e-05
-0.00013486915
-3.0227894e-05
-0.00013962813
-3.0052264e-05
-0.00014484714
-2.9639545e-05
-0.00015058259
-2.895265e-05
-0.00015690251
-2.7947618e-05
-0.00016388747
-2.6572182e-05
-0.00017163354
-2.4763725e-05
-0.00018025639
-2.2446956e-05
-0.00018989698
-1.9530417e-05
-0.00020072761
-1.5902535e-05
-0.00021296159
-1.1425954e-05
-0.00022686454
-5.9303829e-06
-0.00024277433
-0.00026112291
7.9796352e-07
6.7306457e-06
-0.00026808051
1.2231248e-05
-0.00024832343
1.6715503e-05
-0.00023136165
2.0350549e-05
-0.0002166029
2.3272933e-05
-0.00020365575
2.5594121e-05
-0.00019222407
2.7405665e-05
-0.00018207349
2.8783037e-05
-0.0001730157
2.9789015e-05
-0.00016489733
3.0476097e-05
-0.00015759273
3.0888409e-05
-0.00015099762
3.1063164e-05
-0.0001450244
3.1031923e-05
-0.00013959929
3.0821439e-05
-0.00013466095
3.0454735e-05
-0.00013015492
2.9951493e-05
-0.0001260369
2.9328746e-05
-0.00012226778
2.8601216e-05
-0.00011881388
2.7781721e-05
-0.00011564604
2.6881366e-05
-0.00011273895
2.5909879e-05
-0.00011007034
2.4875719e-05
-0.00010762076
2.3786335e-05
-0.00010537295
2.2648231e-05
-0.00010331183
2.1467176e-05
-0.00010142411
2.0248235e-05
-9.9698046e-05
1.8995939e-05
-9.8123244e-05
1.7714275e-05
-9.6690607e-05
1.6406847e-05
-9.5392032e-05
1.5076833e-05
-9.4220404e-05
1.3727138e-05
-9.3169479e-05
1.2360354e-05
-9.2233765e-05
1.0978886e-05
-9.1408471e-05
9.5848898e-06
-9.0689429e-05
8.1803936e-06
-9.0073091e-05
6.7672205e-06
-8.9556461e-05
5.3471257e-06
-8.9137042e-05
3.9217099e-06
-8.8812841e-05
2.4925545e-06
-8.8582331e-05
1.0611378e-06
-8.8444444e-05
-3.7101862e-07
-8.8398544e-05
-1.8024476e-06
-8.8444412e-05
-3.2316235e-06
-8.8582251e-05
-4.6570581e-06
-8.88127e-05
-6.0771462e-06
-8.9136839e-05
-7.4902857e-06
-8.9556195e-05
-8.8947063e-06
-9.0072755e-05
-1.0288607e-05
-9.0689016e-05
-1.1669956e-05
-9.1407986e-05
-1.303662e-05
-9.2233205e-05
-1.4386184e-05
-9.3168829e-05
-1.5716074e-05
-9.4219634e-05
-1.7023375e-05
-9.5391107e-05
-1.8304918e-05
-9.6689504e-05
-1.9557086e-05
-9.8121953e-05
-2.0775913e-05
-9.969658e-05
-2.1956859e-05
-0.00010142251
-2.3094881e-05
-0.00010331016
-2.4184179e-05
-0.0001053713
-2.5218259e-05
-0.0001076192
-2.6189629e-05
-0.0001100689
-2.708984e-05
-0.00011273762
-2.7909124e-05
-0.00011564476
-2.8636419e-05
-0.00011881256
-2.9258908e-05
-0.0001222663
-2.9761941e-05
-0.00012603519
-3.0128474e-05
-0.00013015296
-3.0338846e-05
-0.0001346588
-3.036995e-05
-0.00013959701
-3.019501e-05
-0.0001450221
-2.9782382e-05
-0.00015099521
-2.9094902e-05
-0.00015759
-2.808845e-05
-0.0001648939
-2.6710663e-05
-0.00017301134
-2.489875e-05
-0.00018206828
-2.2577271e-05
-0.00019221848
-1.9654523e-05
-0.00020365034
-1.6018636e-05
-0.00021659749
-1.1531878e-05
-0.00023135128
-6.0235762e-06
-0.00024828265
-0.00026786711
7.206361e-07
6.7460832e-06
-0.0002748266
1.2259811e-05
-0.00025383716
1.6754432e-05
-0.00023585627
2.0397519e-05
-0.00022024599
2.33261e-05
-0.00020658433
2.5651977e-05
-0.00019454995
2.746697e-05
-0.00018388848
2.8846703e-05
-0.00017439544
2.9854129e-05
-0.00016590476
3.0541904e-05
-0.00015828051
3.0954238e-05
-0.00015140995
3.1128416e-05
-0.00014519858
3.1096079e-05
-0.00013956695
3.0884046e-05
-0.00013444893
3.0515405e-05
-0.00012978628
3.0009891e-05
-0.00012553139
2.938459e-05
-0.00012164248
2.8654273e-05
-0.00011808357
2.7831798e-05
-0.00011482356
2.6928293e-05
-0.00011183545
2.5953498e-05
-0.00010909554
2.4915877e-05
-0.00010658315
2.3822879e-05
-0.00010427995
2.2681026e-05
-0.00010216998
2.1496109e-05
-0.00010023919
2.0273216e-05
-9.8475159e-05
1.9016897e-05
-9.6866924e-05
1.7731158e-05
-9.5404875e-05
1.6419607e-05
-9.4080479e-05
1.508544e-05
-9.2886244e-05
1.3731558e-05
-9.1815597e-05
1.2360556e-05
-9.0862768e-05
1.0974817e-05
-9.0022732e-05
9.5765082e-06
-8.9291127e-05
8.1676536e-06
-8.8664236e-05
6.750102e-06
-8.8138917e-05
5.32561e-06
-8.771255e-05
3.8958069e-06
-8.7383046e-05
2.4622735e-06
-8.7148797e-05
1.0264958e-06
-8.7008675e-05
-4.1002887e-07
-8.6962017e-05
-1.845841e-06
-8.700861e-05
-3.2794169e-06
-8.7148672e-05
-4.7092483e-06
-8.7382878e-05
-6.1337318e-06
-8.7712352e-05
-7.5512405e-06
-8.8138695e-05
-8.9600076e-06
-8.8663985e-05
-1.0358205e-05
-8.9290828e-05
-1.174382e-05
-9.0022368e-05
-1.3114709e-05
-9.0862324e-05
-1.4468481e-05
-9.1815054e-05
-1.5802544e-05
-9.2885578e-05
-1.7113986e-05
-9.4079662e-05
-1.8399614e-05
-9.5403884e-05
-1.9655814e-05
-9.6865749e-05
-2.0878595e-05
-9.8473809e-05
-2.2063408e-05
-0.00010023769
-2.3205179e-05
-0.0001021684
-2.42981e-05
-0.00010427837
-2.5335636e-05
-0.00010658168
-2.6310288e-05
-0.00010909424
-2.7213584e-05
-0.00011183434
-2.8035777e-05
-0.00011482256
-2.8765788e-05
-0.00011808256
-2.93908e-05
-0.00012164129
-2.9896105e-05
-0.0001255299
-3.0264614e-05
-0.00012978444
-3.0476575e-05
-0.00013444685
-3.0508813e-05
-0.00013956477
-3.0334464e-05
-0.00014519646
-2.992182e-05
-0.00015140784
-2.9233618e-05
-0.00015827822
-2.8225659e-05
-0.00016590185
-2.6845426e-05
-0.00017439159
-2.5029993e-05
-0.00018388371
-2.2703732e-05
-0.00019454475
-1.9774745e-05
-0.00020657932
-1.6130812e-05
-0.00022024143
-1.1633863e-05
-0.00023584823
-6.1127933e-06
-0.00025380373
-0.00027462718
6.4727981e-07
6.7615443e-06
-0.00028158814
1.2288368e-05
-0.00025936399
1.6793393e-05
-0.0002403613
2.0444565e-05
-0.00022389717
2.3379389e-05
-0.00020951916
2.5710001e-05
-0.00019688057
2.7528484e-05
-0.00018570696
2.8910598e-05
-0.00017577755
2.9919502e-05
-0.00016691366
3.0608017e-05
-0.00015896903
3.102044e-05
-0.00015182238
3.1194126e-05
-0.00014537227
3.1160766e-05
-0.00013953359
3.0947239e-05
-0.00013423541
3.0576691e-05
-0.00012941573
3.006892e-05
-0.00012502363
2.9441071e-05
-0.00012101463
2.8707967e-05
-0.00011735048
2.7882513e-05
-0.0001139981
2.6975866e-05
-0.00011092881
2.599779e-05
-0.00010811746
2.4956759e-05
-0.00010554213
2.3860221e-05
-0.00010318341
2.2714703e-05
-0.00010102447
2.1525998e-05
-9.9050478e-05
2.0299209e-05
-9.7248376e-05
1.9038904e-05
-9.5606615e-05
1.774911e-05
-9.4115087e-05
1.6433452e-05
-9.2764818e-05
1.5095138e-05
-9.1547936e-05
1.3737084e-05
-9.045754e-05
1.2361885e-05
-8.9487576e-05
1.0971932e-05
-8.8632776e-05
9.5693805e-06
-8.7888582e-05
8.156249e-06
-8.7251101e-05
6.7343793e-06
-8.6717054e-05
5.3055446e-06
-8.6283711e-05
3.8713757e-06
-8.5948886e-05
2.4334821e-06
-8.5710898e-05
9.9335409e-07
-8.5568556e-05
-4.4749343e-07
-8.5521163e-05
-1.8876214e-06
-8.5568491e-05
-3.3255064e-06
-8.5710781e-05
-4.7596563e-06
-8.5948737e-05
-6.1884613e-06
-8.6283541e-05
-7.6102972e-06
-8.6716867e-05
-9.0233867e-06
-8.725089e-05
-1.0425886e-05
-8.7888335e-05
-1.1815775e-05
-8.8632474e-05
-1.3190907e-05
-8.9487199e-05
-1.4548884e-05
-9.0457071e-05
-1.5887114e-05
-9.1547355e-05
-1.7202666e-05
-9.2764104e-05
-1.8492341e-05
-9.4114218e-05
-1.9752508e-05
-9.5605575e-05
-2.0979168e-05
-9.7247159e-05
-2.2167748e-05
-9.9049103e-05
-2.3313162e-05
-0.000101023
-2.4409589e-05
-0.00010318194
-2.5450498e-05
-0.00010554078
-2.642839e-05
-0.00010811634
-2.7334791e-05
-0.00011092795
-2.815993e-05
-0.00011399741
-2.8892705e-05
-0.0001173498
-2.9520235e-05
-0.00012101375