/*--------------------------------*- C++ -*----------------------------------*\
| =========                 |                                                 |
| \\      /  F ield         | OpenFOAM: The Open Source CFD Toolbox           |
|  \\    /   O peration     | Version:  v2006                                 |
|   \\  /    A nd           | Website:  www.openfoam.com                      |
|    \\/     M anipulation  |                                                 |
\*---------------------------------------------------------------------------*/
FoamFile
{
    version     2.0;
    format      ascii;
    class       volVectorField;
    location    "6000";
    object      U;
}
// * * * * * * * * * * * * * * * * * * * * * * * * * * * * * * * * * * * * * //

dimensions      [0 1 -1 0 0 0 0];


internalField   nonuniform List<vector> 
102907
(
(0.094547249 7.8616317e-07 5.0299135e-19)
(0.094452997 -3.7714565e-07 -5.3686973e-19)
(0.094415208 7.0883417e-07 -1.6811396e-20)
(0.094401736 3.8569435e-07 -1.0725145e-18)
(0.094397654 8.9143285e-07 1.0642659e-18)
(0.094396707 9.2645452e-07 2.1142551e-18)
(0.094396646 1.2794519e-06 -4.2297759e-18)
(0.094396774 1.3745862e-06 2.1176686e-18)
(0.09439689 1.6692067e-06 8.3242037e-21)
(0.094396961 1.8079846e-06 0)
(0.094396998 1.9788105e-06 0)
(0.094397032 2.1231858e-06 -2.1839746e-18)
(0.094397083 2.2571896e-06 2.2113651e-18)
(0.094397157 2.3857743e-06 -2.2130014e-18)
(0.094397241 2.5184248e-06 2.2407099e-18)
(0.094397308 2.6552885e-06 0)
(0.09439733 2.8068738e-06 -2.2834017e-18)
(0.094397293 2.9751504e-06 4.591769e-18)
(0.094397203 3.155495e-06 -7.4546531e-28)
(0.094397088 3.3182868e-06 -2.3365348e-18)
(0.094396986 3.4650724e-06 0)
(0.094396929 3.6054431e-06 -2.370332e-18)
(0.094396934 3.7510402e-06 4.7884102e-18)
(0.094397001 3.8992985e-06 -7.7064258e-29)
(0.094397115 4.0433246e-06 -2.4375014e-18)
(0.094397256 4.1828557e-06 -4.7892218e-21)
(0.094397403 4.3175464e-06 0)
(0.094397541 4.4415551e-06 -1.245469e-18)
(0.094397662 4.5524941e-06 1.2552438e-18)
(0.094397764 4.6529476e-06 0)
(0.094397847 4.7778753e-06 1.2799309e-18)
(0.094397915 4.9053449e-06 -1.2899146e-18)
(0.09439797 5.0260937e-06 -1.2949086e-18)
(0.094398015 5.1622508e-06 1.3100925e-18)
(0.094398052 5.2880389e-06 -5.1373293e-21)
(0.094398083 5.4069286e-06 0)
(0.094398108 5.5232348e-06 -3.3392944e-19)
(0.094398127 5.6392437e-06 3.4178706e-19)
(0.094398142 5.7588283e-06 0)
(0.094398151 5.8762886e-06 5.3403386e-21)
(0.094398154 5.9979452e-06 -9.1489803e-20)
(0.094398151 6.1239693e-06 9.1571044e-20)
(0.094398142 6.246888e-06 -3.4243453e-19)
(0.094398125 6.364113e-06 5.3107482e-21)
(0.0943981 6.4821717e-06 3.4262802e-19)
(0.094398065 6.6103795e-06 6.6968299e-19)
(0.094398019 6.729608e-06 -1.3345623e-18)
(0.094397958 6.8319964e-06 -6.6487262e-19)
(0.09439788 6.9421667e-06 1.3095667e-18)
(0.094397783 7.0773389e-06 1.2997549e-18)
(0.094397668 7.217475e-06 -1.2899966e-18)
(0.094397535 7.351054e-06 0)
(0.09439739 7.4803467e-06 0)
(0.09439724 7.6033116e-06 0)
(0.094397096 7.7265913e-06 -4.8881969e-21)
(0.094396971 7.8542988e-06 0)
(0.094396876 7.9780257e-06 2.4596315e-18)
(0.094396819 8.1039556e-06 -2.4500909e-18)
(0.094396804 8.2316728e-06 4.7386405e-21)
(0.094396827 8.3595496e-06 -4.7012607e-21)
(0.094396875 8.493495e-06 0)
(0.094396936 8.6327047e-06 0)
(0.094396995 8.7886098e-06 2.349512e-18)
(0.09439704 8.9470272e-06 -2.3257382e-18)
(0.094397069 9.1061782e-06 0)
(0.094397082 9.2697084e-06 0)
(0.094397082 9.4305286e-06 -2.2815074e-18)
(0.09439707 9.5911076e-06 5.2074387e-28)
(0.094397042 9.752761e-06 2.2431956e-18)
(0.094396996 9.9150731e-06 0)
(0.094396932 1.008786e-05 -8.5819867e-21)
(0.094396855 1.0261594e-05 0)
(0.094396781 1.0455629e-05 -8.44112e-21)
(0.094396729 1.0629651e-05 0)
(0.094396716 1.0850089e-05 8.3102711e-21)
(0.09439674 1.1028922e-05 -2.1121838e-18)
(0.094396771 1.127267e-05 2.0983466e-18)
(0.094396754 1.1444109e-05 -1.6299482e-20)
(0.094396665 1.1701773e-05 0)
(0.094396523 1.1888836e-05 5.1752624e-19)
(0.094396445 1.2119957e-05 -5.0249452e-19)
(0.09455125 1.2442676e-06 5.2353593e-19)
(0.094461562 -4.1473155e-07 -5.2654911e-19)
(0.094427097 8.6946939e-07 4.9612185e-20)
(0.094415549 3.3828347e-07 3.3034124e-20)
(0.094412327 8.8463564e-07 2.134837e-18)
(0.094411684 8.5988955e-07 -2.0931349e-18)
(0.094411709 1.1679796e-06 8.1839795e-21)
(0.094411835 1.2497446e-06 -2.1063543e-18)
(0.094411921 1.5070714e-06 2.1144997e-18)
(0.094411954 1.6547281e-06 -1.6730519e-20)
(0.094411962 1.8749621e-06 2.161046e-18)
(0.094411978 2.0480837e-06 1.8426947e-27)
(0.094412025 2.2062638e-06 -2.2091861e-18)
(0.094412102 2.3135363e-06 -8.6731513e-21)
(0.094412189 2.3924401e-06 0)
(0.094412254 2.4714778e-06 2.2684771e-18)
(0.094412266 2.5722667e-06 -2.2836683e-18)
(0.094412212 2.6861358e-06 1.3469042e-20)
(0.094412103 2.8137755e-06 2.3272052e-18)
(0.094411974 2.944976e-06 -2.3283862e-18)
(0.094411864 3.0985512e-06 0)
(0.094411807 3.2607702e-06 -2.39001e-18)
(0.09441182 3.4255368e-06 2.3953155e-18)
(0.094411898 3.5957157e-06 0)
(0.094412022 3.7577316e-06 4.7533975e-21)
(0.094412168 3.9068149e-06 4.7909574e-21)
(0.094412317 4.0390831e-06 0)
(0.094412452 4.1433451e-06 1.2457821e-18)
(0.094412567 4.2103693e-06 1.0792189e-27)
(0.094412661 4.2460908e-06 -1.275118e-18)
(0.094412735 4.2985814e-06 -4.9806247e-21)
(0.094412795 4.4040072e-06 -1.2798901e-18)
(0.094412842 4.5865962e-06 1.2948509e-18)
(0.09441288 4.7816593e-06 6.5753234e-19)
(0.094412911 4.9144839e-06 -6.5234955e-19)
(0.094412936 5.0151333e-06 1.035281e-20)
(0.094412955 5.0909695e-06 3.3907565e-19)
(0.094412969 5.1661982e-06 -6.7815722e-19)
(0.094412977 5.2670965e-06 3.3376461e-19)
(0.094412981 5.3920411e-06 -5.3389901e-21)
(0.094412979 5.5390956e-06 5.3804125e-21)
(0.094412971 5.6693032e-06 -5.3828361e-21)
(0.094412957 5.7792002e-06 0)
(0.094412936 5.885005e-06 -3.4480299e-19)
(0.094412907 5.9668618e-06 -3.4749911e-19)
(0.094412868 6.0381361e-06 6.6891646e-19)
(0.094412818 6.0932453e-06 5.1869792e-21)
(0.094412752 6.1381023e-06 5.1483313e-21)
(0.09441267 6.2192282e-06 0)
(0.094412569 6.3613519e-06 1.0143652e-20)
(0.094412448 6.5318982e-06 -1.2886871e-18)
(0.094412309 6.7128492e-06 1.2790368e-18)
(0.094412156 6.8825879e-06 -1.2595117e-18)
(0.094411996 7.0202818e-06 1.2598552e-18)
(0.094411842 7.1421383e-06 -1.2454216e-18)
(0.094411705 7.2462502e-06 1.2407703e-18)
(0.094411599 7.3425025e-06 2.4672891e-18)
(0.094411532 7.4529441e-06 -2.4386362e-18)
(0.094411508 7.5520116e-06 2.4101033e-18)
(0.094411525 7.621182e-06 -2.3910687e-18)
(0.09441157 7.6865832e-06 0)
(0.094411628 7.7781736e-06 9.244787e-21)
(0.094411682 7.9278483e-06 -2.3472947e-18)
(0.094411722 8.1005032e-06 2.3232797e-18)
(0.094411744 8.2983731e-06 -2.3082604e-18)
(0.094411749 8.515346e-06 2.279658e-18)
(0.094411741 8.6965218e-06 8.8626865e-21)
(0.094411721 8.8486003e-06 2.2490153e-18)
(0.094411688 9.015421e-06 -2.2204387e-18)
(0.094411636 9.1837665e-06 2.2092496e-18)
(0.094411565 9.348022e-06 8.5523057e-21)
(0.094411478 9.5081517e-06 -4.3561935e-18)
(0.094411388 9.7018993e-06 2.5195619e-20)
(0.094411317 9.8641502e-06 2.1307088e-18)
(0.094411286 1.0081096e-05 -2.474764e-20)
(0.094411298 1.0211087e-05 1.6355158e-20)
(0.094411324 1.0485915e-05 0)
(0.094411304 1.0543746e-05 1.6089076e-20)
(0.094411198 1.0791237e-05 0)
(0.09441102 1.0895104e-05 0)
(0.09441091 1.1199038e-05 0)
(0.094554928 1.5221169e-06 -5.1289743e-19)
(0.094469438 -4.8597542e-07 5.1649003e-19)
(0.094438115 9.024769e-07 9.760795e-19)
(0.094428276 3.0203189e-07 -1.0419038e-18)
(0.094425759 8.3990085e-07 -3.243941e-20)
(0.094425354 7.9790032e-07 0)
(0.094425436 1.0638894e-06 3.2501744e-20)
(0.094425551 1.1240381e-06 -2.095441e-18)
(0.0944256 1.3298805e-06 -4.0124795e-27)
(0.094425592 1.4243334e-06 2.1522194e-18)
(0.094425567 1.6233395e-06 0)
(0.094425567 1.8001447e-06 2.1775928e-18)
(0.094425612 2.0015951e-06 -2.1983608e-18)
(0.094425694 2.1799372e-06 0)
(0.094425786 2.3205177e-06 0)
(0.09442585 2.4165982e-06 2.250569e-18)
(0.094425854 2.4851352e-06 -2.270459e-18)
(0.094425787 2.5485904e-06 -2.6943287e-20)
(0.094425666 2.6301705e-06 2.3097448e-18)
(0.094425529 2.717376e-06 -2.3474348e-18)
(0.09442542 2.8138928e-06 -1.8419326e-20)
(0.094425373 2.9248676e-06 9.2849461e-21)
(0.094425399 3.0336934e-06 0)
(0.094425492 3.1580832e-06 0)
(0.094425628 3.2956228e-06 -2.434366e-18)
(0.094425782 3.4399381e-06 2.4534592e-18)
(0.094425931 3.5903925e-06 -9.6584765e-21)
(0.094426064 3.7411666e-06 1.2458632e-18)
(0.094426174 3.8810158e-06 -1.2652831e-18)
(0.09442626 3.9747431e-06 9.883847e-21)
(0.094426327 4.0046605e-06 0)
(0.094426379 4.0184399e-06 0)
(0.094426419 4.0739011e-06 1.0113112e-20)
(0.094426451 4.1787251e-06 -6.5220847e-19)
(0.094426477 4.3021188e-06 6.5722227e-19)
(0.094426497 4.4063997e-06 -6.8297964e-19)
(0.094426511 4.4961577e-06 6.6217932e-19)
(0.09442652 4.5902761e-06 -1.0508631e-20)
(0.094426524 4.6845107e-06 -1.6414531e-19)
(0.094426524 4.7794903e-06 1.7075423e-19)
(0.094426518 4.890568e-06 8.6033528e-20)
(0.094426506 5.0058771e-06 9.6792402e-20)
(0.094426489 5.1153263e-06 -1.7079127e-19)
(0.094426465 5.2025972e-06 3.3903522e-19)
(0.094426433 5.3117724e-06 -1.0042713e-18)
(0.094426391 5.4359189e-06 6.5757487e-19)
(0.094426337 5.5585638e-06 -6.6304912e-19)
(0.094426269 5.6565961e-06 -6.5812726e-19)
(0.094426183 5.729183e-06 1.3064891e-18)
(0.094426077 5.8755943e-06 -1.2967953e-18)
(0.094425952 6.0559421e-06 -1.7049643e-27)
(0.094425808 6.2010617e-06 2.5651593e-18)
(0.094425649 6.3111427e-06 -1.2680571e-18)
(0.094425482 6.3899742e-06 0)
(0.094425319 6.4562683e-06 0)
(0.094425171 6.5040734e-06 -9.6844506e-21)
(0.094425053 6.5508798e-06 0)
(0.094424976 6.6108697e-06 0)
(0.094424944 6.6793417e-06 9.4619287e-21)
(0.094424953 6.7785135e-06 -9.3872219e-21)
(0.094424994 6.9015066e-06 0)
(0.094425049 7.0500292e-06 9.2364289e-21)
(0.094425101 7.230853e-06 0)
(0.094425138 7.4625209e-06 -1.8166598e-20)
(0.094425156 7.6876653e-06 -2.2874403e-18)
(0.094425156 7.8646096e-06 8.9272587e-21)
(0.094425143 8.0164561e-06 2.2473986e-18)
(0.094425119 8.1461799e-06 0)
(0.094425083 8.2644534e-06 -3.4748358e-20)
(0.094425029 8.3717252e-06 2.2029824e-18)
(0.094424956 8.5108163e-06 -2.1818894e-18)
(0.094424865 8.6493882e-06 -2.1437587e-18)
(0.094424766 8.8261092e-06 2.0891261e-18)
(0.094424682 8.9558976e-06 3.3090941e-20)
(0.094424636 9.1927226e-06 -2.0799958e-18)
(0.094424641 9.2832212e-06 -4.8632928e-20)
(0.094424669 9.6341183e-06 1.0269123e-18)
(0.094424655 9.616796e-06 1.0482472e-18)
(0.094424539 1.0036169e-05 0)
(0.094424332 9.9911724e-06 -4.9822691e-19)
(0.094424194 1.0342244e-05 4.813479e-19)
(0.094558085 1.6835937e-06 0)
(0.094476455 -5.3630616e-07 6.333571e-20)
(0.094448213 8.9825728e-07 1.0561794e-18)
(0.094439927 2.6870325e-07 -9.9480534e-19)
(0.094438008 7.9440135e-07 2.0828174e-18)
(0.094437794 7.3417923e-07 -2.0210666e-18)
(0.094437915 9.765074e-07 -6.4550394e-20)
(0.094438013 1.0428722e-06 0)
(0.094438021 1.2320448e-06 -3.2919384e-20)
(0.094437967 1.2971115e-06 -2.1295819e-18)
(0.094437908 1.4457371e-06 4.3043168e-18)
(0.094437891 1.5693491e-06 -2.1743256e-18)
(0.094437933 1.7402257e-06 0)
(0.094438021 1.9179025e-06 -2.2173989e-18)
(0.094438117 2.1025858e-06 2.2208932e-18)
(0.094438181 2.26094e-06 -2.2590287e-18)
(0.094438181 2.3860256e-06 -3.6024407e-27)
(0.094438109 2.4822655e-06 4.6168546e-18)
(0.094437984 2.55095e-06 -2.3373853e-18)
(0.09443785 2.6122652e-06 0)
(0.094437751 2.6664891e-06 1.8423994e-20)
(0.09443772 2.7337707e-06 0)
(0.094437765 2.8085231e-06 0)
(0.094437873 2.8891434e-06 0)
(0.09443802 2.982756e-06 1.902026e-20)
(0.094438178 3.0812203e-06 -1.2267565e-18)
(0.094438326 3.1975369e-06 -9.657916e-21)
(0.094438454 3.3352094e-06 1.2456881e-18)
(0.094438557 3.4868887e-06 1.9612352e-20)
(0.094438637 3.6307289e-06 -1.2647363e-18)
(0.094438698 3.7263536e-06 1.2743386e-18)
(0.094438743 3.7541128e-06 0)
(0.094438778 3.759725e-06 -2.0215003e-20)
(0.094438804 3.8049328e-06 6.4161565e-19)
(0.094438824 3.8893018e-06 -6.5676869e-19)
(0.094438839 3.9896213e-06 1.0340464e-20)
(0.094438849 4.1021261e-06 1.0419747e-20)
(0.094438854 4.2129914e-06 -3.2549736e-19)
(0.094438854 4.3034204e-06 3.3859029e-19)
(0.094438849 4.3688231e-06 0)
(0.094438839 4.4301358e-06 -8.592905e-20)
(0.094438824 4.5003167e-06 7.516522e-20)
(0.094438803 4.585576e-06 0)
(0.094438776 4.6804772e-06 0)
(0.094438741 4.8137302e-06 0)
(0.094438697 4.9743115e-06 1.1545111e-26)
(0.094438642 5.148115e-06 0)
(0.094438573 5.3251805e-06 0)
(0.094438486 5.461173e-06 0)
(0.09443838 5.5513383e-06 -1.3050993e-18)
(0.094438254 5.5961148e-06 1.2854383e-18)
(0.094438107 5.6107913e-06 1.2560159e-18)
(0.094437944 5.6274028e-06 -1.2764071e-18)
(0.094437771 5.6655248e-06 1.9642251e-20)
(0.094437598 5.7138806e-06 -1.9495534e-20)
(0.09443744 5.7711896e-06 2.9023304e-20)
(0.09443731 5.8564472e-06 -2.4770581e-18)
(0.09443722 5.9566514e-06 2.4389996e-18)
(0.094437178 6.0761769e-06 0)
(0.09443718 6.2220425e-06 -1.8757673e-20)
(0.094437217 6.3836174e-06 -1.8607487e-20)
(0.094437271 6.5738057e-06 -2.3808045e-18)
(0.094437325 6.7650758e-06 2.3427196e-18)
(0.094437365 6.9363664e-06 -2.3046942e-18)
(0.094437385 7.0654813e-06 4.587382e-18)
(0.094437384 7.1681909e-06 -4.564451e-18)
(0.094437368 7.2502958e-06 2.2791016e-18)
(0.09443734 7.3149903e-06 0)
(0.0944373 7.3925839e-06 1.7334176e-20)
(0.094437244 7.4581018e-06 0)
(0.094437171 7.5512897e-06 2.1745529e-18)
(0.094437078 7.6539791e-06 -4.3036708e-18)
(0.094436974 7.7961444e-06 3.3261002e-20)
(0.094436876 7.9010996e-06 2.10516e-18)
(0.094436813 8.1194092e-06 -2.0812127e-18)
(0.094436808 8.1869126e-06 2.0890103e-18)
(0.094436837 8.5869476e-06 9.84325e-19)
(0.094436832 8.5822915e-06 -1.0349013e-18)
(0.094436708 9.1134132e-06 0)
(0.094436479 8.9639352e-06 0)
(0.094436306 9.5654526e-06 0)
(0.094560776 1.7532261e-06 0)
(0.094482702 -5.6531129e-07 -1.0564057e-18)
(0.094457531 8.6803003e-07 1.0074688e-18)
(0.094450617 2.3168473e-07 9.4885377e-19)
(0.094449195 7.3512842e-07 -3.0707436e-18)
(0.094449129 6.7289767e-07 2.0023623e-18)
(0.094449277 9.0186094e-07 6.4112694e-20)
(0.094449351 9.8186794e-07 0)
(0.094449316 1.179363e-06 3.2797241e-20)
(0.094449218 1.2562505e-06 3.3181794e-20)
(0.094449127 1.3762014e-06 0)
(0.094449096 1.4453692e-06 2.2049359e-18)
(0.094449137 1.5453669e-06 3.4276838e-20)
(0.094449227 1.6623591e-06 4.5720131e-27)
(0.094449326 1.8095043e-06 -4.422436e-18)
(0.094449389 1.9700545e-06 2.2585683e-18)
(0.094449387 2.1234478e-06 0)
(0.094449314 2.2624067e-06 1.7965523e-20)
(0.094449195 2.3764325e-06 1.8121578e-20)
(0.094449073 2.4717085e-06 0)
(0.094448994 2.5511135e-06 0)
(0.094448985 2.6114187e-06 -1.857668e-20)
(0.094449052 2.6651277e-06 2.3968193e-18)
(0.094449177 2.7107066e-06 -2.4156835e-18)
(0.094449333 2.765683e-06 -1.9019142e-20)
(0.094449492 2.8329689e-06 -1.2265774e-18)
(0.094449637 2.903659e-06 1.255231e-18)
(0.094449758 2.9902318e-06 1.2452696e-18)
(0.094449854 3.1049081e-06 -2.519091e-18)
(0.094449927 3.2434131e-06 1.2640612e-18)
(0.094449982 3.3802706e-06 0)
(0.094450023 3.4858662e-06 2.0048118e-20)
(0.094450053 3.5352486e-06 1.3028091e-18)
(0.094450076 3.559287e-06 -1.282085e-18)
(0.094450092 3.6088127e-06 2.0504164e-20)
(0.094450104 3.6922694e-06 0)
(0.094450111 3.8007757e-06 3.2266124e-19)
(0.094450114 3.9115444e-06 4.5780404e-28)
(0.094450112 4.0110004e-06 -4.9672544e-19)
(0.094450106 4.0849948e-06 1.7040301e-19)
(0.094450093 4.1242264e-06 8.5799187e-20)
(0.094450076 4.1613375e-06 -8.5744991e-20)
(0.094450053 4.2291408e-06 3.5104904e-19)
(0.094450023 4.3097052e-06 -6.7574342e-19)
(0.094449987 4.4214463e-06 3.3536179e-19)
(0.094449943 4.5389613e-06 1.040254e-20)
(0.094449888 4.6650042e-06 0)
(0.09444982 4.8132375e-06 -1.3325109e-18)
(0.094449736 4.9262309e-06 1.3024051e-18)
(0.094449632 4.9823666e-06 0)
(0.094449506 4.995432e-06 -1.2834455e-18)
(0.094449358 4.994347e-06 2.5580863e-18)
(0.094449191 5.0081297e-06 -1.2647349e-18)
(0.094449011 5.0661176e-06 -1.275052e-18)
(0.094448829 5.1454981e-06 1.2461519e-18)
(0.09444866 5.2429495e-06 -2.4930568e-18)
(0.094448517 5.3622203e-06 4.9294117e-18)
(0.094448415 5.4892654e-06 -2.4364198e-18)
(0.094448363 5.6460679e-06 0)
(0.094448359 5.8098621e-06 1.8739273e-20)
(0.094448395 5.9691709e-06 2.3980356e-18)
(0.094448453 6.1190649e-06 -2.37846e-18)
(0.094448515 6.229737e-06 2.3403126e-18)
(0.094448563 6.3299719e-06 -2.3202739e-18)
(0.094448589 6.3960426e-06 0)
(0.094448591 6.4404181e-06 -2.2790439e-18)
(0.094448572 6.4804374e-06 2.2577674e-18)
(0.094448537 6.5081017e-06 0)
(0.09444849 6.5618682e-06 0)
(0.094448431 6.6350628e-06 0)
(0.094448357 6.7519152e-06 -2.2011491e-18)
(0.094448265 6.8728094e-06 4.3197242e-18)
(0.094448156 7.0337053e-06 3.3097643e-20)
(0.094448045 7.13045e-06 -2.1253337e-18)
(0.094447964 7.3540486e-06 0)
(0.094447943 7.3937686e-06 1.9752602e-18)
(0.094447974 7.7673785e-06 -2.9848082e-18)
(0.094447978 7.7587764e-06 6.1927242e-20)
(0.094447852 8.2642695e-06 9.7572354e-19)
(0.094447596 8.0802523e-06 0)
(0.09444739 8.8824008e-06 0)
(0.094562977 1.7540944e-06 4.5417556e-19)
(0.094488187 -5.6114002e-07 -4.878208e-19)
(0.094466109 8.2858281e-07 6.1939513e-20)
(0.094460396 2.0203107e-07 1.0599129e-18)
(0.094459387 6.7427866e-07 -1.0010021e-18)
(0.094459438 6.2150595e-07 0)
(0.0944596 8.4323417e-07 -3.1844282e-20)
(0.09445965 9.1789193e-07 0)
(0.094459572 1.1114207e-06 -2.0912557e-18)
(0.094459432 1.2169201e-06 2.0845829e-18)
(0.094459316 1.3447613e-06 0)
(0.094459277 1.4070142e-06 -2.2015129e-18)
(0.09445932 1.4660457e-06 -3.423912e-20)
(0.094459414 1.5275537e-06 4.4283772e-18)
(0.094459512 1.6081559e-06 -2.2713449e-18)
(0.094459571 1.7074597e-06 3.5281138e-20)
(0.094459565 1.8258938e-06 2.24342e-18)
(0.094459493 1.9545144e-06 -2.2995671e-18)
(0.094459383 2.0843607e-06 0)
(0.09445928 2.2034331e-06 0)
(0.094459226 2.3155519e-06 -1.8427634e-20)
(0.094459245 2.4117783e-06 1.8576764e-20)
(0.094459336 2.4943396e-06 -2.3779556e-18)
(0.094459477 2.5587596e-06 2.4153531e-18)
(0.09445964 2.607134e-06 0)
(0.094459798 2.6469772e-06 1.2261734e-18)
(0.094459937 2.6813156e-06 -1.2353796e-18)
(0.09446005 2.7275175e-06 1.9446654e-20)
(0.094460137 2.7908138e-06 -1.959084e-20)
(0.094460203 2.8839833e-06 0)
(0.094460252 3.0086325e-06 -1.9881379e-20)
(0.09446029 3.1457731e-06 -2.0028292e-20)
(0.094460317 3.2670264e-06 1.2711245e-18)
(0.094460338 3.3436898e-06 -1.3415487e-18)
(0.094460352 3.3826465e-06 6.3482453e-19)
(0.094460362 3.4153394e-06 -6.6022024e-19)
(0.094460368 3.4567104e-06 0)
(0.09446037 3.5177406e-06 -2.0945532e-20)
(0.094460367 3.6140861e-06 1.7939808e-19)
(0.09446036 3.7360094e-06 -1.7014384e-19)
(0.094460348 3.8468932e-06 2.1410608e-20)
(0.09446033 3.9208217e-06 -1.711245e-19)
(0.094460306 3.9786244e-06 -1.8045671e-19)
(0.094460277 4.0193666e-06 3.3715132e-19)
(0.094460241 4.0561032e-06 0)
(0.094460197 4.0819802e-06 2.0761766e-20)
(0.094460143 4.1262536e-06 0)
(0.094460077 4.2142108e-06 1.8895753e-26)
(0.094459994 4.2949187e-06 2.0310991e-20)
(0.094459892 4.3576849e-06 0)
(0.094459768 4.3991832e-06 1.2811737e-18)
(0.094459619 4.4452967e-06 -2.5438361e-18)
(0.094459449 4.5150063e-06 2.5451564e-18)
(0.094459264 4.6121022e-06 -1.2535411e-18)
(0.094459074 4.7136373e-06 1.9443479e-20)
(0.094458894 4.8321162e-06 -2.4704304e-18)
(0.094458739 4.970287e-06 -4.9895885e-27)
(0.094458626 5.1038156e-06 4.8670828e-18)
(0.094458564 5.2361501e-06 -2.4148929e-18)
(0.094458555 5.3442564e-06 2.3960437e-18)
(0.094458591 5.4422067e-06 -2.3583742e-18)
(0.094458656 5.5238923e-06 1.8418301e-20)
(0.094458729 5.5728126e-06 -2.3377833e-18)
(0.094458791 5.615781e-06 2.335721e-18)
(0.094458827 5.6371833e-06 -3.5890314e-20)
(0.094458832 5.6646364e-06 2.275825e-18)
(0.09445881 5.7109645e-06 -2.2893073e-18)
(0.094458766 5.7839247e-06 2.2317036e-18)
(0.094458709 5.8999638e-06 -4.4172507e-18)
(0.094458645 6.026653e-06 2.1847692e-18)
(0.094458572 6.1881813e-06 2.1600802e-18)
(0.094458484 6.33292e-06 -4.2689673e-18)
(0.094458377 6.5367954e-06 2.1079003e-18)
(0.094458258 6.6211358e-06 3.2503828e-20)
(0.09445816 6.8220303e-06 0)
(0.094458125 6.8149963e-06 6.316639e-20)
(0.094458159 7.1086419e-06 9.3272545e-19)
(0.094458178 7.0647268e-06 -1.0395172e-18)
(0.094458056 7.5194178e-06 -1.0210124e-18)
(0.094457774 7.2968469e-06 1.3548894e-18)
(0.094457534 8.1960851e-06 -4.5183722e-19)
(0.0945647 1.6942082e-06 1.1128972e-19)
(0.094493181 -5.2930159e-07 -1.1968594e-19)
(0.094473981 7.7613674e-07 -6.0929221e-20)
(0.094469341 1.8432778e-07 -6.1455242e-20)
(0.094468675 6.1833983e-07 0)
(0.094468815 5.6358595e-07 -1.9981891e-18)
(0.094468984 7.6175703e-07 1.9616046e-18)
(0.094469006 8.1409566e-07 0)
(0.094468887 9.7664747e-07 0)
(0.094468712 1.0844349e-06 0)
(0.09446858 1.232393e-06 0)
(0.094468543 1.3430278e-06 2.1304016e-18)
(0.094468595 1.4296147e-06 5.6055191e-27)
(0.094468693 1.4763006e-06 -2.2124673e-18)
(0.094468787 1.5144645e-06 0)
(0.094468836 1.5672576e-06 -7.054075e-20)
(0.094468822 1.6345556e-06 7.1207753e-20)
(0.094468749 1.7107467e-06 -1.7963895e-20)
(0.094468649 1.8033229e-06 0)
(0.094468566 1.9052765e-06 -2.3392742e-18)
(0.094468539 2.015601e-06 2.3770005e-18)
(0.094468587 2.126389e-06 0)
(0.094468702 2.2315881e-06 -1.8720276e-20)
(0.094468858 2.3244645e-06 0)
(0.094469026 2.3996427e-06 -2.4519169e-18)
(0.094469183 2.457116e-06 2.4510693e-18)
(0.094469314 2.4921477e-06 -1.2345836e-18)
(0.094469418 2.5169727e-06 -3.8863326e-20)
(0.094469497 2.5453147e-06 1.2526864e-18)
(0.094469556 2.5918832e-06 -1.9715394e-20)
(0.0944696 2.6681401e-06 -1.2510863e-18)
(0.094469634 2.7812354e-06 1.2601798e-18)
(0.094469659 2.9116487e-06 1.2895166e-18)
(0.094469678 3.0184478e-06 -1.278666e-18)
(0.094469692 3.0829654e-06 0)
(0.094469701 3.1168916e-06 -6.385235e-19)
(0.094469706 3.1308746e-06 6.6404867e-19)
(0.094469707 3.1475876e-06 3.5543452e-19)
(0.094469703 3.1939614e-06 -5.2666932e-19)
(0.094469696 3.2913047e-06 8.4912482e-20)
(0.094469684 3.4296821e-06 6.4093048e-20)
(0.094469666 3.5524735e-06 0)
(0.094469644 3.6348445e-06 3.3885258e-19)
(0.094469615 3.669312e-06 -3.3633086e-19)
(0.09446958 3.685356e-06 -6.8856074e-19)
(0.094469538 3.6821368e-06 1.3048947e-18)
(0.094469486 3.6880372e-06 -6.374213e-19)
(0.094469421 3.7303927e-06 2.0413427e-20)
(0.094469341 3.7805356e-06 -1.317339e-18)
(0.094469241 3.8485357e-06 1.2877931e-18)
(0.094469118 3.9232259e-06 1.2985836e-18)
(0.094468971 4.0152776e-06 -2.5191474e-18)
(0.0944688 4.1183957e-06 1.240738e-18)
(0.094468611 4.2369894e-06 -1.9553221e-20)
(0.094468414 4.3558787e-06 0)
(0.094468224 4.4650987e-06 -1.9271322e-20)
(0.094468058 4.5653956e-06 1.9129686e-20)
(0.094467932 4.6477908e-06 -2.4303429e-18)
(0.09446786 4.7229626e-06 -1.8842977e-20)
(0.094467844 4.7726926e-06 2.3932192e-18)
(0.09446788 4.8141631e-06 -3.7097449e-20)
(0.094467952 4.8428504e-06 1.8397579e-20)
(0.094468038 4.8653899e-06 0)
(0.094468114 4.901931e-06 -5.4254339e-20)
(0.094468162 4.9501833e-06 7.1688225e-20)
(0.094468173 5.0331561e-06 -3.5508725e-20)
(0.094468146 5.1390624e-06 3.5162279e-20)
(0.094468091 5.2685139e-06 -2.2622205e-18)
(0.094468024 5.4344501e-06 2.2035857e-18)
(0.094467955 5.6014052e-06 -2.2128285e-18)
(0.094467885 5.7743756e-06 2.1865727e-18)
(0.094467807 5.8871971e-06 -3.3217603e-20)
(0.094467708 6.0303047e-06 -2.130426e-18)
(0.094467588 6.0622616e-06 2.0356717e-18)
(0.094467476 6.2525003e-06 0)
(0.094467425 6.2368344e-06 -6.2621855e-20)
(0.094467462 6.4885348e-06 1.2307089e-19)
(0.094467504 6.4286663e-06 0)
(0.094467392 6.851253e-06 5.9157358e-20)
(0.094467086 6.606817e-06 5.7846931e-20)
(0.094466808 7.5269354e-06 -1.1064448e-19)
(0.094565927 1.5830165e-06 -1.0909756e-19)
(0.094497697 -4.8319794e-07 1.1747321e-19)
(0.094481202 7.0695371e-07 -1.1987164e-19)
(0.09447751 1.8127871e-07 0)
(0.094477126 5.6393798e-07 6.1125861e-20)
(0.09447733 5.1044162e-07 1.9191608e-18)
(0.094477499 6.8155776e-07 -3.9611466e-18)
(0.094477493 7.1934553e-07 -6.2961601e-27)
(0.094477333 8.4680438e-07 2.0109186e-18)
(0.09447713 9.3016204e-07 2.105647e-18)
(0.094476997 1.058472e-06 -2.1339078e-18)
(0.094476976 1.1855231e-06 6.7522725e-20)
(0.094477043 1.3075935e-06 3.4160433e-20)
(0.094477145 1.4090631e-06 2.2452019e-18)
(0.094477228 1.4849281e-06 -2.2340362e-18)
(0.09447726 1.5238919e-06 3.5257627e-20)
(0.094477229 1.5540577e-06 -2.2781128e-18)
(0.094477149 1.5930997e-06 2.2990049e-18)
(0.094477056 1.644035e-06 0)
(0.094476994 1.706796e-06 -1.827288e-20)
(0.094476997 1.776569e-06 0)
(0.094477075 1.8611974e-06 -1.8569524e-20)
(0.094477214 1.955955e-06 1.871358e-20)
(0.094477384 2.0539926e-06 0)
(0.094477556 2.1501426e-06 1.4443872e-26)
(0.094477708 2.233537e-06 -1.2246462e-18)
(0.094477833 2.2994556e-06 -1.9273683e-20)
(0.094477928 2.3440145e-06 1.2617849e-18)
(0.094477999 2.3624573e-06 1.4885504e-26)
(0.094478052 2.3788198e-06 1.968989e-20)
(0.094478092 2.4131393e-06 1.9830046e-20)
(0.094478122 2.4720676e-06 -1.2582063e-18)
(0.094478146 2.5581839e-06 1.3074499e-18)
(0.094478164 2.6597594e-06 0)
(0.094478177 2.7561777e-06 -6.3260778e-19)
(0.094478185 2.8291433e-06 1.2950383e-18)
(0.09447819 2.8745685e-06 -1.0146994e-18)
(0.094478191 2.892548e-06 3.1294201e-19)
(0.094478187 2.8991058e-06 0)
(0.09447818 2.9299083e-06 0)
(0.094478167 3.00334e-06 0)
(0.09447815 3.1103329e-06 0)
(0.094478128 3.2098324e-06 2.111959e-20)
(0.094478101 3.2720993e-06 3.3540466e-19)
(0.094478068 3.3241517e-06 -9.7800914e-19)
(0.094478027 3.3606377e-06 6.4037465e-19)
(0.094477977 3.3793472e-06 -6.9728143e-19)
(0.094477915 3.4034525e-06 1.9547154e-18)
(0.094477839 3.4411947e-06 2.0217052e-20)
(0.094477743 3.5063377e-06 -1.2847581e-18)
(0.094477624 3.5879134e-06 -1.9933211e-20)
(0.094477479 3.6928453e-06 -1.9793328e-20)
(0.09447731 3.8039116e-06 0)
(0.094477119 3.9013327e-06 1.9515943e-20)
(0.094476917 3.9830201e-06 1.9377662e-20)
(0.094476718 4.05058e-06 1.9239137e-20)
(0.094476539 4.1006459e-06 -1.909988e-20)
(0.0944764 4.1372643e-06 0)
(0.094476315 4.1688726e-06 1.8817303e-20)
(0.094476291 4.1873966e-06 0)
(0.094476324 4.2132664e-06 1.8525889e-20)
(0.0944764 4.248487e-06 -1.8375492e-20)
(0.094476498 4.3070205e-06 -2.3687539e-18)
(0.094476589 4.3867411e-06 2.3481057e-18)
(0.094476651 4.4865958e-06 -3.5796709e-20)
(0.094476667 4.6111571e-06 3.5456987e-20)
(0.094476638 4.7625927e-06 0)
(0.094476576 4.9135947e-06 3.473648e-20)
(0.0944765 5.0423968e-06 2.1985703e-18)
(0.094476429 5.1216199e-06 -4.3456876e-18)
(0.094476366 5.2034587e-06 2.1458461e-18)
(0.0944763 5.2366208e-06 0)
(0.094476213 5.3510138e-06 -2.0874982e-18)
(0.094476093 5.3731632e-06 1.9916027e-18)
(0.094475968 5.5720428e-06 -6.3197418e-20)
(0.094475898 5.5972774e-06 6.2084505e-20)
(0.094475935 5.8396856e-06 -6.0899142e-20)
(0.094476005 5.8209064e-06 -1.0137576e-18)
(0.094475908 6.2224225e-06 1.7482687e-18)
(0.094475579 5.9781577e-06 -9.0904473e-19)
(0.09447526 6.8854865e-06 1.083998e-19)
(0.094566634 1.4297548e-06 4.2786429e-19)
(0.094501787 -4.3009332e-07 -5.7657186e-19)
(0.094487804 6.2252713e-07 -8.2543557e-19)
(0.094484941 1.7471298e-07 -9.5560245e-19)
(0.094484786 5.0506831e-07 3.8681793e-18)
(0.094485037 4.7010303e-07 6.1390467e-20)
(0.094485201 6.2428585e-07 -2.0618884e-18)
(0.094485163 6.6772569e-07 0)
(0.094484964 7.7798548e-07 -1.9387859e-18)
(0.094484745 8.3272723e-07 2.0995666e-18)
(0.094484628 9.172208e-07 2.1292105e-18)
(0.094484638 1.0060062e-06 -4.3817578e-18)
(0.094484729 1.1181361e-06 2.1495229e-18)
(0.094484833 1.2348318e-06 -2.2432789e-18)
(0.094484898 1.3440242e-06 2.1978106e-18)
(0.094484898 1.4373598e-06 0)
(0.094484837 1.5029485e-06 -3.5584747e-20)
(0.094484742 1.543998e-06 2.2984471e-18)
(0.094484652 1.5663693e-06 -4.6374344e-18)
(0.094484612 1.5913014e-06 2.3565964e-18)
(0.094484647 1.6282656e-06 2.3757892e-18)
(0.094484759 1.672929e-06 1.8562008e-20)
(0.094484923 1.7295546e-06 -2.4315109e-18)
(0.094485107 1.8002514e-06 -1.8843379e-20)
(0.094485282 1.8866658e-06 -2.4295618e-18)
(0.094485431 1.9748052e-06 1.2234999e-18)
(0.094485548 2.0632596e-06 1.2321677e-18)
(0.094485636 2.1405641e-06 0)
(0.094485701 2.1911787e-06 1.3448365e-26)
(0.094485749 2.2150658e-06 0)
(0.094485785 2.2243817e-06 -1.9795825e-20)
(0.094485813 2.2409779e-06 -1.2957166e-18)
(0.094485835 2.2764102e-06 -2.0074113e-20)
(0.094485852 2.3389458e-06 1.2736195e-18)
(0.094485865 2.423967e-06 -2.0360582e-20)
(0.094485874 2.5129925e-06 6.562412e-19)
(0.094485879 2.5936907e-06 -6.4037558e-19)
(0.09448588 2.6515092e-06 -3.1214933e-19)
(0.094485878 2.6721889e-06 3.3545105e-19)
(0.09448587 2.6695472e-06 -2.1124541e-20)
(0.094485857 2.6826455e-06 8.4996005e-20)
(0.09448584 2.7292493e-06 -8.485018e-20)
(0.094485819 2.7974459e-06 -2.1053601e-20)
(0.094485794 2.8673669e-06 3.3436423e-19)
(0.094485762 2.9431636e-06 -3.3191983e-19)
(0.094485725 3.029377e-06 -6.1785459e-19)
(0.094485678 3.1140226e-06 1.3291259e-18)
(0.094485621 3.1795501e-06 6.4971505e-19)
(0.094485549 3.2284249e-06 -1.3306536e-18)
(0.094485459 3.2806373e-06 -2.0021274e-20)
(0.094485346 3.3452336e-06 0)
(0.094485208 3.4072653e-06 0)
(0.094485043 3.4622212e-06 -1.2746346e-18)
(0.094484853 3.5118044e-06 1.22688e-18)
(0.094484647 3.5496749e-06 -1.3387595e-26)
(0.094484439 3.5833624e-06 0)
(0.094484248 3.6023085e-06 0)
(0.094484092 3.6235539e-06 -2.4228881e-18)
(0.094483992 3.6493031e-06 2.4049874e-18)
(0.094483955 3.6872341e-06 0)
(0.094483983 3.7503124e-06 1.8501048e-20)
(0.094484062 3.8276796e-06 2.3490196e-18)
(0.094484169 3.9259102e-06 7.279155e-20)
(0.094484276 4.0463733e-06 -2.3450491e-18)
(0.094484351 4.1837402e-06 3.5747631e-20)
(0.094484376 4.3028287e-06 0)
(0.094484349 4.3887445e-06 0)
(0.094484283 4.4382526e-06 0)
(0.094484204 4.4800289e-06 -3.4274243e-20)
(0.094484131 4.4965487e-06 2.3492415e-26)
(0.094484074 4.5693575e-06 -2.138792e-18)
(0.09448402 4.5980796e-06 2.0760625e-18)
(0.094483946 4.7407749e-06 6.491932e-20)
(0.094483831 4.7858108e-06 6.3869204e-20)
(0.094483692 4.9753552e-06 -1.882492e-18)
(0.094483598 5.0181419e-06 1.9697122e-18)
(0.09448363 5.2385471e-06 9.040814e-19)
(0.094483731 5.248555e-06 -1.8257696e-18)
(0.094483657 5.6159729e-06 1.1482718e-18)
(0.094483306 5.3900651e-06 -1.1162438e-19)
(0.094482938 6.2609184e-06 1.0622325e-19)
(0.09456682 1.2419036e-06 0)
(0.094505502 -3.7173598e-07 1.1320748e-19)
(0.094493827 5.2673243e-07 1.1600218e-19)