/*--------------------------------*- C++ -*----------------------------------*\
| =========                 |                                                 |
| \\      /  F ield         | OpenFOAM: The Open Source CFD Toolbox           |
|  \\    /   O peration     | Version:  v2006                                 |
|   \\  /    A nd           | Website:  www.openfoam.com                      |
|    \\/     M anipulation  |                                                 |
\*---------------------------------------------------------------------------*/
FoamFile
{
    version     2.0;
    format      ascii;
    class       volVectorField;
    location    "6000";
    object      UMean;
}
// * * * * * * * * * * * * * * * * * * * * * * * * * * * * * * * * * * * * * //

dimensions      [0 1 -1 0 0 0 0];


internalField   nonuniform List<vector> 
102907
(
(0.09453805 8.0312602e-07 5.0303121e-19)
(0.094431572 -3.9095672e-07 -5.3697396e-19)
(0.094387321 7.1709953e-07 -1.6815592e-20)
(0.094371093 3.8966382e-07 -1.0728024e-18)
(0.094366 9.1871481e-07 1.0645529e-18)
(0.094364678 9.298624e-07 2.1148147e-18)
(0.09436444 1.2905085e-06 -4.2308663e-18)
(0.094364428 1.3730227e-06 2.1181988e-18)
(0.094364389 1.6397792e-06 8.3262264e-21)
(0.094364271 1.7910556e-06 0)
(0.094364096 1.9859192e-06 0)
(0.094363907 2.1594008e-06 -2.1844603e-18)
(0.094363738 2.3358322e-06 2.2118424e-18)
(0.094363602 2.5052659e-06 -2.2134644e-18)
(0.094363489 2.6724006e-06 2.2411637e-18)
(0.094363379 2.8355555e-06 0)
(0.094363252 2.9956734e-06 -2.2838335e-18)
(0.0943631 3.1525728e-06 4.5926056e-18)
(0.094362932 3.3065225e-06 3.5176054e-28)
(0.094362768 3.4577257e-06 -2.3369257e-18)
(0.094362632 3.6062521e-06 0)
(0.094362546 3.7520951e-06 -2.3706938e-18)
(0.094362518 3.8953602e-06 4.7891084e-18)
(0.094362546 4.0364369e-06 1.7978244e-28)
(0.094362616 4.1756472e-06 -2.4378237e-18)
(0.094362712 4.3134452e-06 -4.789822e-21)
(0.094362816 4.4501015e-06 0)
(0.094362915 4.585495e-06 -1.2456084e-18)
(0.094363003 4.7199099e-06 1.255376e-18)
(0.094363077 4.8531506e-06 0)
(0.094363138 4.9851415e-06 1.2800493e-18)
(0.094363188 5.11592e-06 -1.2900258e-18)
(0.094363231 5.244943e-06 -1.2950122e-18)
(0.094363268 5.372413e-06 1.3101891e-18)
(0.094363302 5.4989278e-06 -5.1376769e-21)
(0.094363335 5.624926e-06 0)
(0.094363366 5.7508565e-06 -3.3394795e-19)
(0.094363394 5.8764253e-06 3.4180391e-19)
(0.094363419 6.0011265e-06 0)
(0.094363439 6.125042e-06 5.3405375e-21)
(0.094363451 6.2487514e-06 -9.1492301e-20)
(0.094363452 6.3723279e-06 9.1590305e-20)
(0.094363442 6.495467e-06 -3.4257197e-19)
(0.094363421 6.6183348e-06 5.3128978e-21)
(0.09436339 6.7415979e-06 3.4276795e-19)
(0.094363352 6.8654028e-06 6.6995887e-19)
(0.094363305 6.9894866e-06 -1.335117e-18)
(0.094363249 7.113784e-06 -6.6515145e-19)
(0.09436318 7.2392335e-06 1.3101209e-18)
(0.094363098 7.3663544e-06 1.3003098e-18)
(0.094363001 7.4946985e-06 -1.2905525e-18)
(0.094362891 7.6240864e-06 0)
(0.094362772 7.7543539e-06 0)
(0.094362651 7.8858678e-06 0)
(0.094362539 8.018882e-06 -4.8903844e-21)
(0.09436245 8.1537935e-06 0)
(0.094362398 8.2908297e-06 2.4607533e-18)
(0.094362394 8.4298093e-06 -2.4512189e-18)
(0.094362443 8.570882e-06 4.7408426e-21)
(0.094362544 8.7142666e-06 -4.7034655e-21)
(0.094362689 8.8598811e-06 0)
(0.094362863 9.0080608e-06 0)
(0.094363051 9.1588157e-06 2.3506435e-18)
(0.09436324 9.3120528e-06 -2.3268678e-18)
(0.094363421 9.4684117e-06 0)
(0.09436359 9.6279862e-06 0)
(0.094363745 9.7915773e-06 -2.2826439e-18)
(0.094363888 9.959254e-06 8.9702576e-28)
(0.094364016 1.01318e-05 2.2443316e-18)
(0.094364127 1.0307804e-05 0)
(0.09436422 1.0490838e-05 -8.5864025e-21)
(0.094364297 1.0673876e-05 0)
(0.094364369 1.0871939e-05 -8.4455324e-21)
(0.094364452 1.1057097e-05 0)
(0.094364564 1.1279142e-05 8.314687e-21)
(0.094364701 1.1462409e-05 -2.1133158e-18)
(0.094364834 1.1711883e-05 2.0994813e-18)
(0.094364901 1.1905288e-05 -1.6308379e-20)
(0.094364866 1.2167398e-05 0)
(0.094364733 1.2391039e-05 5.1781499e-19)
(0.094364588 1.2616728e-05 -5.0263487e-19)
(0.094541788 1.268346e-06 5.2357911e-19)
(0.094439774 -4.3193236e-07 -5.2665411e-19)
(0.094399165 8.7591963e-07 4.9624732e-20)
(0.09438521 3.3685691e-07 3.3043009e-20)
(0.094381163 9.0251196e-07 2.1354108e-18)
(0.094380225 8.5565697e-07 -2.0936866e-18)
(0.094380108 1.1894668e-06 8.1860828e-21)
(0.094380118 1.2716245e-06 -2.1068805e-18)
(0.094380064 1.5187707e-06 2.1150129e-18)
(0.094379923 1.6618199e-06 -1.6734465e-20)
(0.09437973 1.8508089e-06 2.1615416e-18)
(0.094379534 2.0086443e-06 2.5076652e-27)
(0.094379369 2.1729892e-06 -2.2096648e-18)
(0.09437924 2.3276678e-06 -8.6749749e-21)
(0.094379131 2.4803833e-06 0)
(0.094379018 2.628685e-06 2.2689241e-18)
(0.094378881 2.7739235e-06 -2.2841034e-18)
(0.094378713 2.9160066e-06 1.3471515e-20)
(0.094378527 3.0552654e-06 2.3276158e-18)
(0.094378347 3.1919774e-06 -2.3287793e-18)
(0.094378202 3.3264613e-06 0)
(0.094378111 3.4591201e-06 -2.3903793e-18)
(0.094378081 3.5898723e-06 2.3956701e-18)
(0.094378107 3.7184538e-06 0)
(0.094378173 3.8449091e-06 4.75404e-21)
(0.09437826 3.9692827e-06 4.791574e-21)
(0.094378351 4.091809e-06 0)
(0.094378435 4.2126846e-06 1.2459267e-18)
(0.094378506 4.3324789e-06 7.1044998e-28)
(0.094378563 4.451101e-06 -1.2752503e-18)
(0.094378607 4.5684944e-06 -4.9811118e-21)
(0.094378642 4.6851078e-06 -1.2800076e-18)
(0.094378671 4.8008854e-06 1.2949622e-18)
(0.094378697 4.9160324e-06 6.5758504e-19)
(0.094378721 5.030581e-06 -6.5239814e-19)
(0.094378744 5.1445857e-06 1.0353521e-20)
(0.094378766 5.2584329e-06 3.3909706e-19)
(0.094378787 5.3718947e-06 -6.781962e-19)
(0.094378805 5.4847812e-06 3.3378196e-19)
(0.094378818 5.5970978e-06 -5.339238e-21)
(0.094378825 5.7099059e-06 5.3806035e-21)
(0.09437882 5.8235327e-06 -5.3839263e-21)
(0.094378804 5.9367068e-06 0)
(0.094378778 6.0490549e-06 -3.449346e-19)
(0.094378744 6.1617026e-06 -3.4763288e-19)
(0.094378704 6.2748607e-06 6.6917612e-19)
(0.094378655 6.3876302e-06 5.1890106e-21)
(0.094378599 6.499479e-06 5.1503656e-21)
(0.094378531 6.6131586e-06 0)
(0.094378451 6.7302813e-06 1.0147734e-20)
(0.094378357 6.8492069e-06 -1.2892105e-18)
(0.09437825 6.9690562e-06 1.2795613e-18)
(0.094378131 7.0889245e-06 -1.2600332e-18)
(0.09437801 7.2091919e-06 1.2603818e-18)
(0.094377895 7.3300472e-06 -1.2459472e-18)
(0.0943778 7.4525529e-06 1.241299e-18)
(0.09437774 7.577804e-06 2.4683504e-18)
(0.094377727 7.7051793e-06 -2.439695e-18)
(0.094377768 7.8344266e-06 2.4111594e-18)
(0.094377862 7.9655519e-06 -2.3921261e-18)
(0.094378002 8.0985838e-06 0)
(0.094378173 8.234721e-06 9.2489485e-21)
(0.094378359 8.373858e-06 -2.3483605e-18)
(0.094378545 8.5156394e-06 2.3243438e-18)
(0.094378721 8.6608749e-06 -2.3093267e-18)
(0.094378882 8.8088789e-06 2.2807202e-18)
(0.094379029 8.9609388e-06 8.8668507e-21)
(0.094379161 9.1160967e-06 2.2500807e-18)
(0.094379278 9.2766513e-06 -2.221499e-18)
(0.094379378 9.4382752e-06 2.2103128e-18)
(0.094379459 9.6109305e-06 8.5564528e-21)
(0.09437952 9.7764748e-06 -4.3583211e-18)
(0.094379571 9.9716431e-06 2.5208013e-20)
(0.094379629 1.0129841e-05 2.1317647e-18)
(0.094379716 1.0367378e-05 -2.4759994e-20)
(0.094379835 1.050715e-05 1.6363385e-20)
(0.094379962 1.0796137e-05 0)
(0.094380021 1.0934781e-05 1.6097302e-20)
(0.094379967 1.1236239e-05 0)
(0.094379795 1.1418991e-05 0)
(0.094379622 1.1708582e-05 0)
(0.094545154 1.5468759e-06 -5.1294162e-19)
(0.094447262 -5.0734729e-07 5.1659565e-19)
(0.094410124 9.038041e-07 9.7632866e-19)
(0.094398226 2.9474458e-07 -1.0421833e-18)
(0.094395037 8.5328517e-07 -3.2448067e-20)
(0.094394397 7.9031558e-07 0)
(0.09439437 1.0994877e-06 3.2510036e-20)
(0.094394391 1.1749959e-06 -2.0959609e-18)
(0.09439432 1.4009864e-06 -4.2941168e-27)
(0.094394156 1.5320848e-06 2.1527234e-18)
(0.094393949 1.7044003e-06 0)
(0.094393752 1.8484293e-06 2.1780751e-18)
(0.094393596 1.9975081e-06 -2.198834e-18)
(0.094393479 2.1380379e-06 0)
(0.094393379 2.2763328e-06 0)
(0.094393266 2.4106435e-06 2.2510102e-18)
(0.09439312 2.5420525e-06 -2.2708893e-18)
(0.094392938 2.6704553e-06 -2.6948212e-20)
(0.094392738 2.7964115e-06 2.3101502e-18)
(0.094392549 2.9199968e-06 -2.3478293e-18)
(0.0943924 3.0415731e-06 -1.8422286e-20)
(0.094392311 3.1615381e-06 9.2863759e-21)
(0.094392287 3.2796857e-06 0)
(0.094392316 3.3958449e-06 0)
(0.094392381 3.5101967e-06 -2.4346943e-18)
(0.094392462 3.6227433e-06 2.453775e-18)
(0.094392543 3.7336637e-06 -9.6596603e-21)
(0.094392613 3.8432739e-06 1.2460085e-18)
(0.094392669 3.9515284e-06 -1.2654231e-18)
(0.09439271 4.0586365e-06 9.8848829e-21)
(0.09439274 4.165102e-06 0)
(0.094392761 4.2711032e-06 0)
(0.094392779 4.3765928e-06 1.0113994e-20)
(0.094392794 4.4815808e-06 -6.5226166e-19)
(0.094392808 4.5859305e-06 6.572721e-19)
(0.094392823 4.6891875e-06 -6.8302762e-19)
(0.094392838 4.7916201e-06 6.6222206e-19)
(0.094392852 4.8941744e-06 -1.0509251e-20)
(0.094392864 4.9981389e-06 -1.6415407e-19)
(0.094392872 5.1031295e-06 1.7076242e-19)
(0.094392874 5.206538e-06 8.6041505e-20)
(0.094392865 5.3074458e-06 9.6816858e-20)
(0.094392844 5.4076809e-06 -1.7085366e-19)
(0.094392816 5.5088239e-06 3.3916017e-19)
(0.09439278 5.6106729e-06 -1.0046446e-18)
(0.094392739 5.7137121e-06 6.5782151e-19)
(0.094392692 5.8191855e-06 -6.6330001e-19)
(0.094392637 5.9254253e-06 -6.5837863e-19)
(0.094392573 6.0313318e-06 1.3069928e-18)
(0.094392497 6.1365317e-06 -1.2973002e-18)
(0.094392407 6.2402596e-06 -1.0456376e-27)
(0.094392304 6.3449658e-06 2.5661776e-18)
(0.094392188 6.4525034e-06 -1.2685654e-18)
(0.094392067 6.5636227e-06 0)
(0.094391949 6.6761744e-06 0)
(0.094391849 6.7890883e-06 -9.6884473e-21)
(0.094391781 6.9029962e-06 0)
(0.094391757 7.0182566e-06 0)
(0.094391788 7.1356526e-06 9.4659513e-21)
(0.094391874 7.2543999e-06 -9.3912534e-21)
(0.094392008 7.3751966e-06 0)
(0.094392175 7.4987318e-06 9.2404743e-21)
(0.094392358 7.6246749e-06 0)
(0.094392541 7.7538909e-06 -1.8174706e-20)
(0.094392712 7.8867459e-06 -2.2884705e-18)
(0.094392867 8.0222361e-06 8.9313155e-21)
(0.094393005 8.1623009e-06 2.2484284e-18)
(0.094393128 8.3041167e-06 0)
(0.094393237 8.4530988e-06 -3.4764539e-20)
(0.094393328 8.599681e-06 2.2040161e-18)
(0.094393398 8.7626284e-06 -2.1829207e-18)
(0.094393447 8.907152e-06 -2.1447792e-18)
(0.094393481 9.0989526e-06 2.0901275e-18)
(0.094393516 9.2206333e-06 3.3106911e-20)
(0.094393581 9.4747024e-06 -2.0810064e-18)
(0.094393685 9.5385559e-06 -4.8656719e-20)
(0.094393807 9.8853642e-06 1.0274179e-18)
(0.094393868 9.893229e-06 1.048767e-18)
(0.0943938 1.0305324e-05 0)
(0.094393595 1.0313657e-05 -4.9847806e-19)
(0.094393396 1.0735265e-05 4.8148061e-19)
(0.094547941 1.7078209e-06 0)
(0.094453854 -5.5402379e-07 6.3349013e-20)
(0.094420129 9.0169713e-07 1.0564519e-18)
(0.094410158 2.5613164e-07 -9.9507195e-19)
(0.094407693 8.0048746e-07 2.0833716e-18)
(0.094407294 7.2850603e-07 -2.0215943e-18)
(0.094407333 1.0146081e-06 -6.4566852e-20)
(0.094407357 1.0838867e-06 0)
(0.094407266 1.2907572e-06 -3.2927325e-20)
(0.09440708 1.4106411e-06 -2.1300815e-18)
(0.094406862 1.5677064e-06 4.3052994e-18)
(0.094406669 1.6989174e-06 -2.1748089e-18)
(0.094406527 1.8344141e-06 0)
(0.094406427 1.9620695e-06 -2.2178647e-18)
(0.094406337 2.0875669e-06 2.2213462e-18)
(0.094406225 2.2094092e-06 -2.259476e-18)
(0.094406071 2.3285675e-06 -4.0425744e-27)
(0.094405877 2.4449144e-06 4.6177122e-18)
(0.094405665 2.5589697e-06 -2.3378038e-18)
(0.094405471 2.6707606e-06 0)
(0.094405325 2.7808112e-06 1.8427045e-20)
(0.094405244 2.8892278e-06 0)
(0.094405228 2.9958093e-06 0)
(0.094405265 3.1005821e-06 0)
(0.094405332 3.2036489e-06 1.9022957e-20)
(0.09440541 3.3050561e-06 -1.2269234e-18)
(0.094405481 3.405064e-06 -9.6591754e-21)
(0.094405539 3.5038757e-06 1.2458437e-18)
(0.094405581 3.6013277e-06 1.9614695e-20)
(0.094405609 3.697882e-06 -1.2648806e-18)
(0.094405626 3.7940021e-06 1.2744771e-18)
(0.094405636 3.8896895e-06 0)
(0.094405643 3.9848424e-06 -2.0216981e-20)
(0.094405649 4.0793772e-06 6.4167496e-19)
(0.094405656 4.1730848e-06 -6.5682586e-19)
(0.094405664 4.2658812e-06 1.0341308e-20)
(0.094405673 4.3582325e-06 1.0420543e-20)
(0.094405683 4.4509615e-06 -3.2552051e-19)
(0.094405691 4.544866e-06 3.3861261e-19)
(0.094405695 4.6394705e-06 0)
(0.094405693 4.7328677e-06 -8.5945071e-20)
(0.09440568 4.8243391e-06 7.5189803e-20)
(0.094405657 4.9147252e-06 0)
(0.094405626 5.0052634e-06 0)
(0.09440559 5.0964338e-06 0)
(0.094405549 5.1888343e-06 1.1803891e-26)
(0.094405503 5.285125e-06 0)
(0.094405451 5.3839391e-06 0)
(0.094405391 5.4815806e-06 0)
(0.094405321 5.5762467e-06 -1.3055728e-18)
(0.094405237 5.6678441e-06 1.2859091e-18)
(0.094405138 5.760683e-06 1.2564803e-18)
(0.094405027 5.857586e-06 -1.2768838e-18)
(0.094404907 5.9583118e-06 1.9649661e-20)
(0.094404788 6.0611289e-06 -1.9502967e-20)
(0.094404682 6.1649374e-06 2.9034486e-20)
(0.094404604 6.2694876e-06 -2.478023e-18)
(0.09440457 6.3744891e-06 2.4399598e-18)
(0.094404589 6.4811284e-06 0)
(0.094404665 6.590422e-06 -1.8765222e-20)
(0.094404791 6.7028972e-06 -1.8615056e-20)
(0.094404954 6.8175254e-06 -2.3817828e-18)
(0.094405134 6.933974e-06 2.3436919e-18)
(0.094405314 7.0521506e-06 -2.3056594e-18)
(0.094405482 7.1724839e-06 4.5893206e-18)
(0.094405631 7.2942119e-06 -4.5663965e-18)
(0.094405762 7.4198416e-06 2.2800814e-18)
(0.094405878 7.5457397e-06 0)
(0.094405978 7.6812272e-06 1.7341753e-20)
(0.094406062 7.8110216e-06 0)
(0.094406126 7.9641474e-06 2.1755189e-18)
(0.094406165 8.0892096e-06 -4.3055977e-18)
(0.094406185 8.27517e-06 3.3276016e-20)
(0.094406201 8.3725235e-06 2.1061179e-18)
(0.094406243 8.6226815e-06 -2.0821675e-18)
(0.094406333 8.6619119e-06 2.0899761e-18)
(0.094406452 9.0101958e-06 9.8478355e-19)
(0.094406521 8.9806111e-06 -1.0353869e-18)
(0.094406441 9.442032e-06 0)
(0.094406208 9.3286691e-06 0)
(0.094405975 9.963377e-06 0)
(0.09455021 1.7790294e-06 0)
(0.094459659 -5.7431025e-07 -1.0566329e-18)
(0.094429403 8.7653658e-07 1.00773e-18)
(0.094421123 2.2569973e-07 9.4910646e-19)
(0.094419259 7.436877e-07 -3.071554e-18)
(0.094419052 6.7102227e-07 2.002881e-18)
(0.09441914 9.335254e-07 6.4128909e-20)
(0.094419159 9.9806601e-07 0)
(0.094419045 1.1864546e-06 3.2805086e-20)
(0.094418837 1.2968597e-06 3.3189514e-20)
(0.094418613 1.4395118e-06 0)
(0.09441843 1.5591739e-06 2.2054217e-18)
(0.094418307 1.6822379e-06 3.4284179e-20)
(0.094418226 1.7980877e-06 4.9594114e-27)
(0.094418148 1.9119871e-06 -4.4233287e-18)
(0.094418037 2.0224509e-06 2.2590108e-18)
(0.094417875 2.1303297e-06 0)
(0.094417669 2.2357135e-06 1.796883e-20)
(0.094417449 2.3389399e-06 1.8124798e-20)
(0.094417254 2.4401588e-06 0)
(0.094417116 2.5396775e-06 0)
(0.094417049 2.6375253e-06 -1.857964e-20)
(0.094417049 2.7336711e-06 2.3971879e-18)
(0.094417096 2.8280576e-06 -2.4160416e-18)
(0.094417169 2.9208667e-06 -1.9021856e-20)
(0.094417245 3.0122002e-06 -1.2267457e-18)
(0.09441731 3.1022414e-06 1.2553964e-18)
(0.094417358 3.1912085e-06 1.2454269e-18)
(0.094417388 3.2789978e-06 -2.5193959e-18)
(0.094417405 3.3661296e-06 1.2642075e-18)
(0.094417411 3.4528545e-06 0)
(0.094417412 3.5391797e-06 2.0050228e-20)
(0.094417411 3.6249162e-06 1.3029394e-18)
(0.09441741 3.709883e-06 -1.2822066e-18)
(0.094417411 3.7940649e-06 2.0506003e-20)
(0.094417414 3.8775108e-06 0)
(0.09441742 3.9607288e-06 3.226869e-19)
(0.094417426 4.0445177e-06 4.4048893e-28)
(0.094417431 4.1289776e-06 -4.967601e-19)
(0.094417433 4.2138088e-06 1.7041408e-19)
(0.094417428 4.2980227e-06 8.5815304e-20)
(0.094417413 4.3807742e-06 -8.5772254e-20)
(0.094417387 4.4622362e-06 3.5116263e-19)
(0.094417355 4.5432158e-06 -6.7596424e-19)
(0.094417318 4.62464e-06 3.3547249e-19)
(0.094417278 4.7073624e-06 1.0406007e-20)
(0.094417234 4.7941873e-06 0)
(0.094417185 4.8838312e-06 -1.3329635e-18)
(0.09441713 4.9726249e-06 1.3028516e-18)
(0.094417065 5.0582498e-06 0)
(0.094416987 5.1405944e-06 -1.2838938e-18)
(0.094416894 5.2238396e-06 2.5589886e-18)
(0.094416787 5.3109803e-06 -1.2651857e-18)
(0.094416668 5.4020594e-06 -1.2755113e-18)
(0.094416547 5.4949881e-06 1.2466059e-18)
(0.094416434 5.5891714e-06 -2.4939753e-18)
(0.094416346 5.6839671e-06 4.9312489e-18)
(0.094416299 5.7789349e-06 -2.4373379e-18)
(0.094416304 5.8755959e-06 0)
(0.094416367 5.9745662e-06 1.874649e-20)
(0.094416484 6.0763076e-06 2.3989689e-18)
(0.094416641 6.1800881e-06 -2.3793947e-18)
(0.094416818 6.2858017e-06 2.3412412e-18)
(0.094416997 6.3930568e-06 -2.3212027e-18)
(0.094417162 6.5022179e-06 0)
(0.094417307 6.6124985e-06 -2.2799721e-18)
(0.094417431 6.7270102e-06 2.2586949e-18)
(0.094417539 6.8405199e-06 0)
(0.094417633 6.9652703e-06 0)
(0.094417712 7.0810481e-06 0)
(0.09441777 7.2249848e-06 -2.202085e-18)
(0.094417803 7.3328507e-06 4.3215766e-18)
(0.094417813 7.5123978e-06 3.3111964e-20)
(0.094417811 7.590811e-06 -2.1262613e-18)
(0.094417831 7.8323971e-06 0)
(0.094417904 7.8634055e-06 1.9761373e-18)
(0.094418023 8.1874511e-06 -2.9861445e-18)
(0.094418104 8.1632051e-06 6.1955177e-20)
(0.09441802 8.6244546e-06 9.761671e-19)
(0.094417758 8.4488872e-06 0)
(0.094417492 9.2430647e-06 0)
(0.094551936 1.7773322e-06 4.5422094e-19)
(0.094464719 -5.7049452e-07 -4.8792826e-19)
(0.094437979 8.3257212e-07 6.1955632e-20)
(0.094431166 2.0226054e-07 1.0601938e-18)
(0.094429804 6.8408841e-07 -1.0012649e-18)
(0.094429751 6.1741941e-07 0)
(0.094429873 8.5616823e-07 -3.1852297e-20)
(0.094429881 9.1769009e-07 0)
(0.094429741 1.0886281e-06 -2.0917539e-18)
(0.094429513 1.1903014e-06 2.0850663e-18)
(0.094429287 1.3198606e-06 0)
(0.094429119 1.4287141e-06 -2.2019971e-18)
(0.09442902 1.5404726e-06 -3.4246442e-20)
(0.09442896 1.6456236e-06 4.4292968e-18)
(0.094428894 1.7488631e-06 -2.2718026e-18)
(0.094428783 1.8490253e-06 3.5288036e-20)
(0.094428611 1.9467441e-06 2.2438457e-18)
(0.094428393 2.042129e-06 -2.2999897e-18)
(0.094428168 2.1354611e-06 0)
(0.094427977 2.2269733e-06 0)
(0.094427853 2.3168346e-06 -1.8430681e-20)
(0.094427805 2.404996e-06 1.8579734e-20)
(0.094427824 2.4915649e-06 -2.378323e-18)
(0.094427887 2.5765005e-06 2.4157134e-18)
(0.094427967 2.6599841e-06 0)
(0.094428043 2.7421752e-06 1.2263432e-18)
(0.094428103 2.8232564e-06 -1.2355441e-18)
(0.094428143 2.9033065e-06 1.9449139e-20)
(0.094428164 2.9824175e-06 -1.959324e-20)
(0.094428172 3.0609915e-06 0)
(0.09442817 3.139142e-06 -1.9883606e-20)
(0.094428164 3.2168383e-06 -2.0030431e-20)
(0.094428157 3.2938289e-06 1.2712538e-18)
(0.094428152 3.3701084e-06 -1.3416783e-18)
(0.094428149 3.4457408e-06 6.3488269e-19)
(0.094428149 3.5208033e-06 -6.6027745e-19)
(0.094428152 3.5959012e-06 0)
(0.094428156 3.6713395e-06 -2.0947143e-20)
(0.09442816 3.7470858e-06 1.7941102e-19)
(0.09442816 3.8231728e-06 -1.7015531e-19)
(0.094428153 3.8988051e-06 2.1414561e-20)
(0.094428136 3.9734871e-06 -1.7117691e-19)
(0.094428109 4.0468684e-06 -1.8051252e-19)
(0.094428076 4.1194178e-06 3.3725662e-19)
(0.094428039 4.1921902e-06 0)
(0.094427999 4.2663815e-06 2.0768388e-20)
(0.094427958 4.3446258e-06 0)
(0.094427912 4.4257891e-06 1.9192047e-26)
(0.094427861 4.5063387e-06 2.0317678e-20)
(0.094427801 4.5836849e-06 0)
(0.094427729 4.6576098e-06 1.2816044e-18)
(0.094427642 4.7320767e-06 -2.5447004e-18)
(0.094427538 4.8104757e-06 2.5460307e-18)
(0.094427421 4.8926021e-06 -1.2539765e-18)
(0.094427297 4.9766577e-06 1.9450311e-20)
(0.094427177 5.0618633e-06 -2.4713085e-18)
(0.094427077 5.1476715e-06 -3.7267058e-27)
(0.094427014 5.2334667e-06 4.8688523e-18)
(0.094427003 5.3208036e-06 -2.4157805e-18)
(0.094427052 5.4103323e-06 2.3969339e-18)
(0.094427158 5.502054e-06 -2.3592597e-18)
(0.094427308 5.5958774e-06 1.8425287e-20)
(0.094427483 5.6915556e-06 -2.3386788e-18)
(0.094427661 5.7883953e-06 2.3366242e-18)
(0.094427824 5.88771e-06 -3.5904319e-20)
(0.094427965 5.9873466e-06 2.2767211e-18)
(0.094428084 6.0919063e-06 -2.290217e-18)
(0.094428186 6.1942413e-06 2.2325984e-18)
(0.094428274 6.3095444e-06 -4.4190381e-18)
(0.094428348 6.4118373e-06 2.1856614e-18)
(0.094428403 6.5480527e-06 2.1609704e-18)
(0.094428432 6.6397445e-06 -4.2707424e-18)
(0.094428434 6.8131026e-06 2.1087842e-18)
(0.094428417 6.8765143e-06 3.2517568e-20)
(0.094428415 7.1058577e-06 0)
(0.094428471 7.1338185e-06 6.3193506e-20)
(0.094428589 7.4304243e-06 9.3312873e-19)
(0.094428686 7.4144856e-06 -1.0399698e-18)
(0.094428606 7.8666488e-06 -1.0214602e-18)
(0.094428314 7.6479571e-06 1.3554881e-18)
(0.094428015 8.5377478e-06 -4.5195955e-19)
(0.094553116 1.7087993e-06 1.1130148e-19)
(0.094469251 -5.4384165e-07 -1.1971292e-19)
(0.094445891 7.7056294e-07 -6.0945091e-20)
(0.094440357 1.8511806e-07 -6.1471432e-20)
(0.094439415 6.2316309e-07 0)
(0.094439482 5.675913e-07 -1.9987003e-18)
(0.094439625 7.8279647e-07 1.9620942e-18)
(0.094439617 8.4158662e-07 0)
(0.094439448 9.9632945e-07 0)
(0.094439202 1.0894539e-06 0)
(0.094438979 1.2069997e-06 0)
(0.094438833 1.3062379e-06 2.1308669e-18)
(0.094438761 1.4076827e-06 5.4132789e-27)
(0.094438724 1.5032991e-06 -2.2129246e-18)
(0.094438668 1.5971366e-06 0)
(0.094438554 1.6877927e-06 -7.055451e-20)
(0.094438371 1.7762171e-06 7.1221243e-20)
(0.094438142 1.8622542e-06 -1.7967193e-20)
(0.094437913 1.9463257e-06 0)
(0.094437731 2.0286217e-06 -2.339675e-18)
(0.094437626 2.1093502e-06 2.3773941e-18)
(0.094437603 2.1886662e-06 0)
(0.094437646 2.2665908e-06 -1.8723178e-20)
(0.094437725 2.3431336e-06 0)
(0.094437813 2.4183934e-06 -2.4522718e-18)
(0.09443789 2.4924224e-06 2.4514114e-18)
(0.094437947 2.5652919e-06 -1.2347496e-18)
(0.09443798 2.6371385e-06 -3.886835e-20)
(0.094437995 2.7081204e-06 1.2528419e-18)
(0.094437996 2.7785798e-06 -1.9717739e-20)
(0.094437989 2.8487168e-06 -1.2512286e-18)
(0.094437979 2.9185036e-06 1.2603168e-18)
(0.094437969 2.9877561e-06 1.2896503e-18)
(0.09443796 3.0564165e-06 -1.2787923e-18)
(0.094437955 3.1244871e-06 0)
(0.094437953 3.1921488e-06 -6.385804e-19)
(0.094437955 3.2597217e-06 6.6410466e-19)
(0.094437957 3.3273187e-06 3.5546278e-19)
(0.09443796 3.3949903e-06 -5.2670869e-19)
(0.094437959 3.4630055e-06 8.4918436e-20)
(0.094437951 3.5308888e-06 6.4104533e-20)
(0.094437933 3.5980963e-06 0)
(0.094437906 3.6641578e-06 3.3895264e-19)
(0.094437872 3.7292559e-06 -3.3643116e-19)
(0.094437836 3.7941391e-06 -6.8876827e-19)
(0.094437798 3.8607851e-06 1.3052923e-18)
(0.094437758 3.931084e-06 -6.3761781e-19)
(0.094437716 4.0039294e-06 2.0419796e-20)
(0.094437669 4.0768175e-06 -1.3177549e-18)
(0.094437614 4.1464404e-06 1.2882044e-18)
(0.094437547 4.2127264e-06 1.2990033e-18)
(0.094437464 4.2793764e-06 -2.5199709e-18)
(0.094437364 4.3499557e-06 1.2411483e-18)
(0.094437248 4.4241942e-06 -1.955976e-20)
(0.094437121 4.5001962e-06 0)
(0.094436993 4.5773021e-06 -1.9277917e-20)
(0.09443688 4.6547361e-06 1.9136308e-20)
(0.094436801 4.7322431e-06 -2.431194e-18)
(0.094436771 4.8108479e-06 -1.8849651e-20)
(0.094436803 4.8913062e-06 2.3940765e-18)
(0.094436897 4.9738984e-06 -3.7110889e-20)
(0.09443704 5.058206e-06 1.8404318e-20)
(0.094437212 5.1444527e-06 0)
(0.09443739 5.2317468e-06 -5.4274645e-20)
(0.094437553 5.3220088e-06 7.171534e-20)
(0.094437692 5.4116976e-06 -3.5522294e-20)
(0.094437806 5.50785e-06 3.5175851e-20)
(0.094437902 5.5991877e-06 -2.2631021e-18)
(0.094437984 5.7068792e-06 2.2044524e-18)
(0.094438054 5.7960698e-06 -2.2137067e-18)
(0.094438107 5.9255718e-06 2.1874479e-18)
(0.094438135 6.002958e-06 -3.3231006e-20)
(0.094438132 6.1684509e-06 -2.1312921e-18)
(0.094438103 6.2219712e-06 2.0365052e-18)
(0.094438079 6.4351102e-06 0)
(0.094438114 6.4636671e-06 -6.2647835e-20)
(0.094438232 6.7320397e-06 1.2312226e-19)
(0.094438349 6.7248423e-06 0)
(0.09443828 7.1573247e-06 5.9182372e-20)
(0.094437958 6.919513e-06 5.7871566e-20)
(0.094437623 7.849846e-06 -1.1067429e-19)
(0.094553729 1.5854674e-06 -1.0910978e-19)
(0.094473312 -4.99766e-07 1.175003e-19)
(0.094453163 6.928727e-07 -1.1990292e-19)
(0.094448749 1.7242129e-07 0)
(0.094448154 5.6033037e-07 6.1141796e-20)
(0.094448314 5.195506e-07 1.9196523e-18)
(0.09444847 7.1169821e-07 -3.9621356e-18)
(0.09444844 7.6892111e-07 -6.3201376e-27)
(0.09444824 9.0808945e-07 2.0113936e-18)
(0.094447978 9.9408089e-07 2.1061316e-18)
(0.094447765 1.1003712e-06 -2.1343869e-18)
(0.094447645 1.1903662e-06 6.7537512e-20)
(0.094447604 1.2822668e-06 3.4167727e-20)
(0.094447589 1.3687019e-06 2.2456689e-18)
(0.094447542 1.4534089e-06 -2.2344887e-18)
(0.094447422 1.5352873e-06 3.5264586e-20)
(0.094447225 1.6151026e-06 -2.2785507e-18)
(0.094446985 1.6927914e-06 2.2994341e-18)
(0.094446756 1.7686772e-06 0)
(0.094446588 1.8428849e-06 -1.8276074e-20)
(0.094446508 1.9156082e-06 0)
(0.094446514 1.9869342e-06 -1.8572566e-20)
(0.094446582 2.0568546e-06 1.871655e-20)
(0.094446678 2.1253985e-06 0)
(0.094446775 2.1927234e-06 1.4641054e-26)
(0.094446853 2.2589556e-06 -1.2248222e-18)
(0.094446907 2.324236e-06 -1.9276357e-20)
(0.094446935 2.3887353e-06 1.2619537e-18)
(0.094446945 2.4526788e-06 1.5072852e-26)
(0.094446942 2.5161564e-06 1.9692328e-20)
(0.094446932 2.5791741e-06 1.9832403e-20)
(0.094446919 2.6417447e-06 -1.2583497e-18)
(0.094446907 2.7036568e-06 1.3075926e-18)
(0.094446897 2.7649533e-06 0)
(0.094446891 2.8257707e-06 -6.3267084e-19)
(0.094446888 2.8864488e-06 1.2951614e-18)
(0.094446888 2.9470471e-06 -1.0147912e-18)
(0.094446891 3.007582e-06 3.1296886e-19)
(0.094446892 3.0681925e-06 0)
(0.094446891 3.1290853e-06 0)
(0.094446883 3.189876e-06 0)
(0.094446865 3.2499765e-06 0)
(0.094446837 3.3090941e-06 2.1125454e-20)
(0.094446804 3.3673818e-06 3.3549878e-19)
(0.094446769 3.4252169e-06 -9.7828657e-19)
(0.094446733 3.4849097e-06 6.4055832e-19)
(0.094446696 3.5480217e-06 -6.9748375e-19)
(0.094446657 3.6134362e-06 1.9552895e-18)
(0.094446614 3.6789827e-06 2.0223064e-20)
(0.094446563 3.7413079e-06 -1.285145e-18)
(0.0944465 3.8007543e-06 -1.9939289e-20)
(0.094446422 3.8603312e-06 -1.9799436e-20)
(0.094446326 3.9236883e-06 0)
(0.09444621 3.990539e-06 1.9522107e-20)
(0.09444608 4.0590563e-06 1.9383854e-20)
(0.094445944 4.1287805e-06 1.9245358e-20)
(0.094445818 4.198476e-06 -1.9106132e-20)
(0.094445721 4.2681572e-06 0)
(0.094445672 4.3388372e-06 1.8823614e-20)
(0.094445685 4.4110632e-06 0)
(0.094445764 4.4852429e-06 1.853226e-20)
(0.094445899 4.5609649e-06 -1.8381891e-20)
(0.09444607 4.6387407e-06 -2.3695891e-18)
(0.094446249 4.7171704e-06 2.3489437e-18)
(0.094446414 4.7991429e-06 -3.5809636e-20)
(0.094446552 4.8794773e-06 3.5469933e-20)
(0.094446662 4.9680941e-06 0)
(0.094446751 5.0483062e-06 3.4749414e-20)
(0.094446828 5.1496978e-06 2.1993961e-18)
(0.094446895 5.225671e-06 -4.3473338e-18)
(0.094446946 5.3496891e-06 2.146666e-18)
(0.094446974 5.4143339e-06 0)
(0.094446969 5.5709778e-06 -2.0883093e-18)
(0.094446931 5.6184367e-06 1.9923826e-18)
(0.094446886 5.8124342e-06 -6.3222346e-20)
(0.094446897 5.8448045e-06 6.2109165e-20)
(0.094447012 6.0845727e-06 -6.0923489e-20)
(0.094447154 6.0862619e-06 -1.0141654e-18)
(0.094447104 6.4906151e-06 1.7489763e-18)
(0.094446751 6.2537328e-06 -9.094153e-19)
(0.094446373 7.1761145e-06 1.0842888e-19)
(0.094553758 1.4220699e-06 4.279152e-19)
(0.09447697 -4.4359254e-07 -5.7670778e-19)
(0.09445983 6.0421345e-07 -8.256513e-19)
(0.094456392 1.6278559e-07 -9.5585377e-19)
(0.094456082 4.9657002e-07 3.86919e-18)
(0.094456311 4.7359589e-07 6.1406227e-20)
(0.094456473 6.4250413e-07 -2.0624044e-18)
(0.094456416 6.9851127e-07 0)
(0.094456181 8.2336505e-07 -1.9392457e-18)
(0.094455908 9.0151633e-07 2.1000521e-18)
(0.094455711 9.9780345e-07 2.1296912e-18)
(0.094455624 1.0793616e-06 -4.3827237e-18)
(0.094455615 1.1626451e-06 2.1499855e-18)
(0.094455623 1.2409466e-06 -2.2437497e-18)
(0.094455581 1.3176441e-06 2.1982604e-18)
(0.094455452 1.3916055e-06 0)
(0.094455238 1.4635087e-06 -3.5591686e-20)
(0.094454987 1.5332685e-06 2.2988833e-18)
(0.09445476 1.6011933e-06 -4.6382885e-18)
(0.094454612 1.6675087e-06 2.3570169e-18)
(0.094454563 1.7325115e-06 2.3762e-18)
(0.094454602 1.7963121e-06 1.8565119e-20)
(0.094454697 1.8589827e-06 -2.4319059e-18)
(0.09445481 1.9204977e-06 -1.8846345e-20)
(0.094454914 1.9809205e-06 -2.4299321e-18)
(0.094454993 2.0403626e-06 1.2236804e-18)
(0.094455043 2.0987853e-06 1.2323434e-18)
(0.094455067 2.1564135e-06 0)
(0.094455073 2.2135037e-06 1.3578331e-26)
(0.094455068 2.2700787e-06 0)
(0.094455056 2.3263148e-06 -1.9798268e-20)
(0.094455043 2.3822126e-06 -1.2958703e-18)
(0.09445503 2.4375992e-06 -2.0076398e-20)
(0.09445502 2.4924968e-06 1.2737585e-18)
(0.094455014 2.5470628e-06 -2.0362711e-20)
(0.094455011 2.6014463e-06 6.5630685e-19)
(0.094455011 2.6555103e-06 -6.4043681e-19)
(0.094455013 2.7093721e-06 -3.121778e-19)
(0.094455014 2.7632807e-06 3.3548019e-19)
(0.094455013 2.81749e-06 -2.1126285e-20)
(0.094455005 2.8717215e-06 8.5010303e-20)
(0.094454987 2.9254024e-06 -8.4872066e-20)
(0.09445496 2.9782107e-06 -2.1059098e-20)
(0.094454928 3.030414e-06 3.3445257e-19)
(0.094454895 3.0823498e-06 -3.3200858e-19)
(0.094454861 3.1356194e-06 -6.1802173e-19)
(0.094454826 3.1919656e-06 1.3294897e-18)
(0.09445479 3.2504535e-06 6.4989492e-19)
(0.09445475 3.3088664e-06 -1.3310264e-18)
(0.094454703 3.3645319e-06 -2.0026951e-20)
(0.094454646 3.4177067e-06 0)
(0.094454572 3.4708922e-06 0)
(0.094454479 3.5277071e-06 -1.2750094e-18)
(0.094454365 3.5876001e-06 1.2272451e-18)
(0.094454232 3.6491977e-06 -1.3495478e-26)
(0.094454089 3.7120772e-06 0)
(0.09445395 3.774598e-06 0)
(0.094453834 3.8370405e-06 -2.4236469e-18)
(0.094453764 3.900156e-06 2.4057508e-18)
(0.094453757 3.9647106e-06 0)
(0.09445382 4.0311773e-06 1.8507086e-20)
(0.094453946 4.0987177e-06 2.3497968e-18)
(0.094454114 4.1689013e-06 7.2815963e-20)
(0.094454296 4.2388857e-06 -2.3458457e-18)
(0.094454465 4.313664e-06 3.5759921e-20)
(0.094454603 4.3847101e-06 0)
(0.094454709 4.4670059e-06 0)
(0.094454792 4.5364281e-06 0)
(0.094454863 4.6328232e-06 -3.4286504e-20)
(0.094454926 4.696396e-06 2.3683706e-26)
(0.094454976 4.8148631e-06 -2.1395718e-18)
(0.094455005 4.8697031e-06 2.0768271e-18)
(0.094455 5.0146873e-06 6.4943463e-20)
(0.094454956 5.0597185e-06 6.3893177e-20)
(0.094454892 5.2329794e-06 -1.8832046e-18)
(0.094454875 5.2700392e-06 1.9704635e-18)
(0.094454983 5.4826939e-06 9.0442869e-19)
(0.094455155 5.4920548e-06 -1.8264753e-18)
(0.094455132 5.862257e-06 1.1487184e-18)
(0.094454749 5.6414926e-06 -1.1166811e-19)
(0.094454321 6.5197225e-06 1.0625164e-19)
(0.094553194 1.228899e-06 0)
(0.094480277 -3.7956597e-07 1.1323465e-19)
(0.094465927 5.0829874e-07 1.1603244e-19)