/*--------------------------------*- C++ -*----------------------------------*\
| =========                 |                                                 |
| \\      /  F ield         | OpenFOAM: The Open Source CFD Toolbox           |
|  \\    /   O peration     | Version:  v2006                                 |
|   \\  /    A nd           | Website:  www.openfoam.com                      |
|    \\/     M anipulation  |                                                 |
\*---------------------------------------------------------------------------*/
FoamFile
{
    version     2.0;
    format      ascii;
    class       volVectorField;
    location    "6000";
    object      wallShearStress;
}
// * * * * * * * * * * * * * * * * * * * * * * * * * * * * * * * * * * * * * //

dimensions      [1 -1 -2 0 0 0 0];


internalField   uniform (0 0 0);

boundaryField
{
    Side
    {
        type            empty;
    }
    Ground
    {
        type            calculated;
        value           uniform (0 0 0);
    }
    Inlet
    {
        type            calculated;
        value           uniform (0 0 0);
    }
    Airfoil
    {
        type            calculated;
        value           nonuniform List<vector> 
646
(
(1.3995972e-06 -2.5414183e-08 -2.0802401e-20)
(9.9697819e-07 4.9256196e-07 -2.5535277e-20)
(4.8512673e-06 1.344359e-06 -1.3003062e-20)
(2.8636308e-06 7.5628838e-07 -1.3253234e-20)
(3.6756676e-06 9.9233532e-07 -1.3456218e-20)
(3.2772004e-06 9.3990859e-07 -1.1479437e-41)
(3.5412499e-06 1.0058641e-06 -1.3822098e-20)
(3.3305148e-06 9.3837098e-07 -3.4158309e-24)
(3.2373756e-06 8.8346991e-07 -3.5012283e-40)
(3.0727622e-06 8.3644717e-07 -6.9884624e-24)
(3.0560401e-06 8.2589378e-07 -2.8934906e-20)
(2.9988018e-06 8.0951472e-07 -1.4590202e-20)
(3.0238307e-06 8.1305347e-07 -1.4733642e-20)
(2.9957418e-06 7.9102175e-07 -7.2622168e-24)
(3.0097029e-06 7.9110602e-07 1.5003652e-20)
(3.0059843e-06 7.7171323e-07 -5.9950212e-37)
(3.0020935e-06 7.6823226e-07 1.4693679e-38)
(3.0205418e-06 7.6296897e-07 -7.6832193e-21)
(3.0256877e-06 7.6126052e-07 7.7418928e-21)
(3.0446174e-06 7.5949063e-07 7.8007013e-21)
(3.0470648e-06 7.5493635e-07 -2.2958874e-41)
(3.068772e-06 7.5688146e-07 7.9146547e-21)
(3.0700992e-06 7.4616105e-07 1.5567134e-23)
(3.0741536e-06 7.4510467e-07 -8.0260318e-21)
(3.0929142e-06 7.403844e-07 8.0495779e-21)
(3.0839855e-06 7.2992999e-07 -8.1027932e-21)
(3.1041902e-06 7.318156e-07 8.1563961e-21)
(3.1110017e-06 7.1933079e-07 3.2189811e-23)
(3.0997078e-06 7.1087407e-07 -1.6200026e-23)
(3.1251895e-06 7.133768e-07 -8.3528463e-21)
(3.1263961e-06 6.9925219e-07 2.9387359e-39)
(3.1162724e-06 6.9252931e-07 -1.6514202e-23)
(3.136164e-06 6.9370776e-07 1.7028458e-20)
(3.1370391e-06 6.8190252e-07 -8.5722373e-21)
(3.1275303e-06 6.7476077e-07 -8.5708522e-21)
(3.1382283e-06 6.7391947e-07 -8.6804443e-21)
(3.1397814e-06 6.6604304e-07 8.715816e-21)
(3.1334466e-06 6.5730357e-07 -8.7636503e-21)
(3.131204e-06 6.5399026e-07 1.7208691e-23)
(3.1436626e-06 6.5117749e-07 -1.7301869e-23)
(3.1305388e-06 6.3607545e-07 -1.4105932e-37)
(3.1261295e-06 6.3173921e-07 -1.7937178e-20)
(3.1312779e-06 6.2925041e-07 6.7590925e-37)
(3.1330719e-06 6.1613707e-07 -1.7695943e-23)
(3.1133554e-06 6.033355e-07 -9.0954121e-21)
(3.1153795e-06 5.9894664e-07 9.1523356e-21)
(3.1189617e-06 5.957005e-07 3.1434652e-28)
(3.1122185e-06 5.7197344e-07 1.8084026e-23)
(3.0881838e-06 5.6233777e-07 9.3117609e-21)
(3.0906411e-06 5.5711911e-07 5.8774718e-39)
(3.086843e-06 5.5139538e-07 -8.8162076e-39)
(3.0733115e-06 5.2483431e-07 -9.4550912e-21)
(3.0513636e-06 5.1693904e-07 -9.513871e-21)
(3.0458813e-06 5.0977308e-07 -1.0608837e-36)
(3.0372561e-06 5.029295e-07 0)
(3.015859e-06 4.7727835e-07 6.7003178e-37)
(2.9990345e-06 4.6896548e-07 9.6987064e-21)
(2.9806369e-06 4.5947285e-07 1.9061555e-23)
(2.9704837e-06 4.514034e-07 -1.9142498e-23)
(2.9380132e-06 4.2829936e-07 1.9257767e-23)
(2.9249494e-06 4.1694597e-07 4.9556296e-21)
(2.8891952e-06 4.0435425e-07 4.9759736e-21)
(2.8811305e-06 3.9475296e-07 9.3014191e-28)
(2.8323211e-06 3.7271976e-07 1.0509738e-45)
(2.8174233e-06 3.5360443e-07 2.6448623e-38)
(2.769827e-06 3.3870325e-07 -1.0144654e-20)
(2.7505073e-06 3.2507881e-07 5.107568e-21)
(2.7109502e-06 3.1078124e-07 -8.4488656e-38)
(2.6391384e-06 2.7326177e-07 1.02945e-20)
(2.6305805e-06 2.6132009e-07 -2.2040519e-38)
(2.5618195e-06 2.418621e-07 -2.0324598e-23)
(2.541806e-06 2.2599339e-07 4.080418e-23)
(2.4542854e-06 1.9619438e-07 -4.1056338e-23)
(2.3898357e-06 1.6101989e-07 5.279385e-21)
(2.3553652e-06 1.429789e-07 5.3193264e-21)
(2.2887804e-06 1.2078298e-07 -4.6923347e-37)
(2.2423738e-06 9.9934863e-08 5.3346248e-21)
(2.1189767e-06 6.757071e-08 5.3960898e-21)
(2.0505162e-06 3.7345627e-08 -2.1118053e-23)
(1.9880205e-06 1.3398364e-08 -5.4109456e-21)
(1.9110984e-06 -1.1644149e-08 -5.4514981e-21)
(1.8298522e-06 -3.7784884e-08 1.3890119e-39)
(1.673697e-06 -7.4066889e-08 -5.5094586e-21)
(1.5712619e-06 -1.0561657e-07 5.5286979e-21)
(1.4850955e-06 -1.305767e-07 5.8774718e-39)
(1.3648548e-06 -1.6004567e-07 -2.2040519e-39)
(1.2598305e-06 -1.9035204e-07 5.6062055e-21)
(1.048326e-06 -2.4026609e-07 4.4081038e-39)
(8.6393032e-07 -2.8837728e-07 -5.6652759e-21)
(8.0467607e-07 -3.1650195e-07 0)
(5.8147163e-07 -3.5557734e-07 1.3003906e-37)
(5.2512353e-07 -3.9702751e-07 5.7437738e-21)
(1.7938071e-07 -4.5327942e-07 -5.7855728e-21)
(-1.9184444e-07 -5.1655237e-07 2.2661952e-23)
(-2.1685536e-07 -5.530697e-07 -5.8235874e-21)
(-4.9984637e-07 -6.1130207e-07 2.2040519e-39)
(-6.154243e-07 -6.6533178e-07 0)
(-9.6869847e-07 -7.3955749e-07 0)
(-1.5196226e-06 -8.1790439e-07 -1.8367099e-39)
(-1.7562301e-06 -8.6992263e-07 -2.9794413e-21)
(-1.9081229e-06 -9.2483046e-07 -4.0407618e-39)
(-2.2614799e-06 -9.8334507e-07 1.3560533e-39)
(-2.3458258e-06 -1.0557837e-06 6.8589636e-40)
(-3.0098501e-06 -1.1360379e-06 -2.3647252e-23)
(-3.6841835e-06 -1.1925729e-06 2.3749822e-23)
(-3.718445e-06 -1.2472605e-06 -6.1381115e-21)
(-4.064498e-06 -1.3115771e-06 2.3958497e-23)
(-4.359366e-06 -1.3779329e-06 3.0570249e-21)
(-4.6615364e-06 -1.4647773e-06 2.4195169e-23)
(-5.4145355e-06 -1.5396376e-06 2.4264705e-23)
(-6.0088942e-06 -1.5917528e-06 3.0730947e-21)
(-6.1622794e-06 -1.6593306e-06 2.4505458e-23)
(-6.5589914e-06 -1.7298501e-06 -3.1462255e-21)
(-6.8954732e-06 -1.8091124e-06 -3.1888935e-21)
(-7.3257831e-06 -1.9095309e-06 3.2019566e-21)
(-8.247556e-06 -1.9796581e-06 3.1861768e-21)
(-8.8882722e-06 -2.0269161e-06 -3.2308704e-21)
(-9.0933596e-06 -2.1050464e-06 -3.1927335e-21)
(-9.5401714e-06 -2.1832318e-06 3.6734198e-39)
(-9.9501565e-06 -2.2715025e-06 -4.8819176e-38)
(-1.0402732e-05 -2.3955663e-06 -2.5463967e-23)
(-1.1630587e-05 -2.4630769e-06 3.294888e-21)
(-1.2514776e-05 -2.4861225e-06 3.2907297e-21)
(-1.2658592e-05 -2.5739843e-06 -3.3269466e-21)
(-1.3139915e-05 -2.659745e-06 2.5888859e-23)
(-1.3677401e-05 -2.7357857e-06 6.6681372e-21)
(-1.3888685e-05 -2.9000088e-06 1.3958995e-38)
(-1.5475701e-05 -2.9732058e-06 -3.3563906e-21)
(-1.6900126e-05 -2.9235298e-06 1.6792264e-39)
(-1.6846922e-05 -3.0236946e-06 -3.3866837e-21)
(-1.7358764e-05 -3.1070657e-06 3.3885632e-21)
(-1.7881385e-05 -3.1847222e-06 -3.420695e-21)
(-1.816801e-05 -3.3384081e-06 -3.4317156e-21)
(-1.9433756e-05 -3.4451383e-06 -3.4329563e-21)
(-2.1168166e-05 -3.3947997e-06 3.4771587e-21)
(-2.1632858e-05 -3.432442e-06 -1.357494e-23)
(-2.1941742e-05 -3.5245987e-06 2.1457579e-39)
(-2.2457869e-05 -3.6087302e-06 -1.3710945e-23)
(-2.2986612e-05 -3.7010302e-06 3.5355051e-21)
(-2.3408355e-05 -3.8878043e-06 1.3819455e-23)
(-2.5374203e-05 -3.9004978e-06 1.7635244e-21)
(-2.6907863e-05 -3.7852784e-06 -1.7831899e-21)
(-2.6856944e-05 -3.9016532e-06 -4.6652432e-38)
(-2.738893e-05 -3.9834616e-06 1.4073445e-23)
(-2.793521e-05 -4.0639034e-06 -1.8904892e-27)
(-2.8348691e-05 -4.2083174e-06 3.6196682e-21)
(-2.9428621e-05 -4.338266e-06 1.4693679e-39)
(-3.1430386e-05 -4.2634433e-06 5.5101298e-39)
(-3.2372541e-05 -4.2243237e-06 1.8257826e-21)
(-3.2560639e-05 -4.3312905e-06 1.4451757e-23)
(-3.3114399e-05 -4.4150901e-06 1.841607e-21)
(-3.371691e-05 -4.4931453e-06 1.8797881e-21)
(-3.410346e-05 -4.6631799e-06 -1.8752402e-21)
(-3.5528384e-05 -4.7489898e-06 -2.9096591e-27)
(-3.7469991e-05 -4.63148e-06 1.0044507e-41)
(-3.8097816e-05 -4.6518968e-06 -1.4841826e-23)
(-3.8462128e-05 -4.7546461e-06 1.9216046e-21)
(-3.9065272e-05 -4.8427912e-06 2.2040519e-39)
(-3.9724759e-05 -4.9254247e-06 1.5049975e-23)
(-4.0162312e-05 -5.1041445e-06 -1.5105735e-23)
(-4.1687049e-05 -5.1808998e-06 1.5155328e-23)
(-4.3655203e-05 -5.0535849e-06 -2.0867952e-27)
(-4.4288077e-05 -5.0866125e-06 1.9440354e-21)
(-4.4724383e-05 -5.1942512e-06 -1.536313e-23)
(-4.538873e-05 -5.2876946e-06 -1.9637268e-21)
(-4.6110026e-05 -5.374e-06 -3.0136158e-27)
(-4.6537122e-05 -5.5842811e-06 3.98919e-21)
(-4.8263446e-05 -5.6938106e-06 -1.5659094e-23)
(-5.1035571e-05 -5.4671407e-06 4.0272422e-21)
(-5.2029593e-05 -5.3992261e-06 2.0370683e-21)
(-5.2210956e-05 -5.5308195e-06 1.5867502e-23)
(-5.2821893e-05 -5.629576e-06 -1.5961734e-23)
(-5.3543074e-05 -5.7151175e-06 -3.1471419e-27)
(-5.3992682e-05 -5.9027997e-06 -2.0587465e-21)
(-5.5134402e-05 -6.1780423e-06 2.0718427e-21)
(-5.9320954e-05 -5.8546398e-06 2.0614018e-21)
(-6.1737396e-05 -5.4126984e-06 1.0591316e-21)
(-6.114436e-05 -5.6117218e-06 2.1351753e-38)
(-6.1572653e-05 -5.7080999e-06 1.6472169e-23)
(-6.2185586e-05 -5.7898597e-06 -1.075057e-21)
(-6.2795172e-05 -5.8563915e-06 -8.0024232e-38)
(-6.239647e-05 -6.354802e-06 -1.0700722e-21)
(-6.6916704e-05 -6.1605706e-06 -2.2958874e-40)
(-7.1561323e-05 -5.2764546e-06 -1.9790549e-38)
(-7.0755084e-05 -5.416532e-06 -1.0830617e-21)
(-7.0854896e-05 -5.5117301e-06 1.0888234e-21)
(-7.1208512e-05 -5.5969229e-06 -1.7084422e-23)
(-7.1771699e-05 -5.6620371e-06 -1.0980826e-21)
(-7.2098869e-05 -5.8272446e-06 2.5978453e-27)
(-7.3220339e-05 -6.0184359e-06 2.2369656e-21)
(-7.6793356e-05 -5.6786527e-06 -2.2040519e-39)
(-7.877246e-05 -5.3005599e-06 -1.1192437e-21)
(-7.8378095e-05 -5.4638659e-06 1.1260212e-21)
(-7.8845214e-05 -5.5281687e-06 -1.1222134e-21)
(-7.9387431e-05 -5.5972742e-06 1.1271292e-21)
(-8.0025926e-05 -5.6606415e-06 -1.1512302e-21)
(-8.055003e-05 -5.7878263e-06 8.9748611e-24)
(-8.180608e-05 -5.8353854e-06 1.1534283e-21)
(-8.3477702e-05 -5.7220426e-06 -2.7550649e-40)
(-8.4244924e-05 -5.7301228e-06 1.3228995e-27)
(-8.4730805e-05 -5.8219055e-06 2.0203809e-39)
(-8.5379308e-05 -5.9059941e-06 2.3444352e-21)
(-8.6138493e-05 -5.9760647e-06 9.2361013e-24)
(-8.6793242e-05 -6.0493555e-06 -9.2870341e-24)
(-8.6766533e-05 -6.4048577e-06 1.8490073e-27)
(-9.0177584e-05 -6.3129282e-06 1.5924218e-27)
(-9.4219844e-05 -5.6562984e-06 2.4191847e-21)
(-9.407416e-05 -5.686043e-06 -6.0567056e-22)
(-9.3848854e-05 -5.8319325e-06 1.2285026e-21)
(-9.390435e-05 -5.9769523e-06 -6.2202642e-22)
(-9.4302801e-05 -6.0632463e-06 -1.2307969e-21)
(-9.4132642e-05 -6.1926202e-06 -6.1834545e-22)
(-9.1506712e-05 -7.4389691e-06 6.224589e-22)
(-0.00010438112 -6.6179871e-06 -1.9859426e-38)
(-0.0001182303 -3.3842653e-06 -7.1746481e-42)
(-0.00011402413 -3.3633081e-06 -9.8160537e-24)
(-0.00011120124 -3.6607339e-06 9.8765322e-24)
(-0.00010930711 -3.918434e-06 -3.1824423e-22)
(-0.00010845321 -4.0458936e-06 -3.2994452e-22)
(-0.00010733675 -4.1331914e-06 -3.1156383e-22)
(-0.00010144509 -6.0047212e-06 -2.1041808e-38)
(-0.00011785432 -4.9869106e-06 4.0795767e-38)
(-0.00014378058 1.2351499e-06 1.0121382e-23)
(-0.00014098579 2.7860975e-06 -1.0166753e-23)
(-0.00013201068 1.758358e-06 -1.6379202e-22)
(-0.00012767598 1.346143e-06 1.6490158e-22)
(-0.00012431845 9.9744779e-07 1.5555291e-22)
(-0.00012160252 7.7606279e-07 1.0447188e-23)
(-0.00011587726 -4.9263301e-07 -1.6818323e-22)
(-0.00012066396 -1.2275972e-06 -1.6838983e-22)
(-0.00015266279 5.3933029e-06 1.0488901e-23)
(-0.00016330285 1.1539206e-05 5.9847298e-27)
(-0.00014638487 8.8076088e-06 -2.1217478e-23)
(-0.00014118344 8.3060199e-06 -6.7448281e-22)
(-0.00013595499 7.6222028e-06 0)
(-0.00013286158 7.3376427e-06 0)
(-0.00012871434 6.8867078e-06 -6.8791696e-22)
(-0.00011809061 3.8654106e-06 -7.25608e-22)
(-0.00014506195 8.2197775e-06 1.0925362e-23)
(-0.00016780933 1.7493318e-05 1.4056491e-21)
(-0.00014935083 1.4520527e-05 -3.7646743e-27)
(-0.00014327245 1.3777298e-05 1.4266093e-21)
(-0.00013701485 1.2841236e-05 1.1230375e-23)
(-0.00013257394 1.2221527e-05 -2.2619754e-23)
(-0.00012862909 1.1708451e-05 2.9152218e-21)
(-0.00012146599 1.0155425e-05 1.1468229e-23)
(-0.00012375177 9.7027272e-06 -1.4688991e-21)
(-0.00015893623 1.8348192e-05 5.701287e-24)
(-0.00017043434 2.6031199e-05 -5.7225403e-24)
(-0.00014931837 2.1592952e-05 1.4780474e-21)
(-0.00014289367 2.0626059e-05 0)
(-0.00013592026 1.9356851e-05 1.102026e-39)
(-0.00013115288 1.8552997e-05 -1.5229951e-21)
(-0.00012665392 1.7765166e-05 -1.1344082e-27)
(-0.00011864028 1.5817726e-05 6.0153188e-24)
(-0.00012835957 1.760269e-05 3.0696073e-21)
(-0.00015414229 2.6071286e-05 -7.3468397e-40)
(-0.00015323002 2.8897316e-05 6.0170517e-24)
(-0.00013905986 2.5705191e-05 -1.5607241e-21)
(-0.00013289368 2.4517394e-05 -6.133696e-24)
(-0.00012706337 2.3306964e-05 1.5893026e-21)
(-0.00012270061 2.2431413e-05 -1.5956142e-21)
(-0.0001187493 2.1604131e-05 -1.6075913e-21)
(-0.000112809 2.0174358e-05 6.9427635e-38)
(-0.00011835986 2.1469218e-05 6.3206077e-24)
(-0.00013539482 2.7298625e-05 -6.3124209e-24)
(-0.00013437317 2.909515e-05 -1.6195918e-21)
(-0.00012343036 2.6461612e-05 1.96974e-27)
(-0.00011844248 2.5383788e-05 -6.472526e-24)
(-0.00011348439 2.4247281e-05 -1.6646495e-21)
(-0.00010957455 2.3369772e-05 -1.6912621e-21)
(-0.00010634414 2.2630427e-05 1.6976136e-21)
(-0.00010188386 2.1509257e-05 -1.7110003e-21)
(-0.00010146137 2.1471963e-05 -6.6897511e-24)
(-0.00012226769 2.763375e-05 6.6372488e-24)
(-0.00012920781 3.2537308e-05 -1.7021819e-21)
(-0.00011449189 2.8613642e-05 -1.7261458e-21)
(-0.00011020282 2.7611446e-05 -6.8173509e-24)
(-0.00010496029 2.6263394e-05 -1.7613118e-21)
(-0.00010118711 2.5313061e-05 0)
(-9.8061201e-05 2.4564314e-05 3.5817406e-21)
(-9.5020835e-05 2.3671296e-05 2.9387359e-39)
(-8.9972557e-05 2.2527885e-05 -3.6406104e-21)
(-0.00010194821 2.5883527e-05 -9.0234073e-28)
(-0.00011459839 3.1425522e-05 7.0672247e-24)
(-0.00010655931 3.0085456e-05 1.8209904e-21)
(-0.00010041944 2.839991e-05 -2.9387359e-39)
(-9.6025642e-05 2.7186836e-05 -3.7201367e-21)
(-9.2414453e-05 2.6172173e-05 -1.8770203e-21)
(-8.9290862e-05 2.5307208e-05 7.3957411e-24)
(-8.7003728e-05 2.4670882e-05 1.9009057e-21)
(-8.4342393e-05 2.385929e-05 7.5124449e-24)
(-8.0483079e-05 2.309625e-05 -7.6095332e-29)
(-9.3195798e-05 2.6684501e-05 1.9071016e-21)
(-0.00010071418 3.1072969e-05 1.927339e-21)
(-8.9901377e-05 2.7840026e-05 -1.9511673e-21)
(-8.7183614e-05 2.7071962e-05 3.8468444e-24)
(-8.3362298e-05 2.592372e-05 1.9882429e-21)
(-8.0691956e-05 2.5118734e-05 2.0060458e-21)
(-7.8189542e-05 2.4384405e-05 -2.0231234e-21)
(-7.6520294e-05 2.3880526e-05 -2.0392655e-21)
(-7.432222e-05 2.3171177e-05 -2.0549017e-21)
(-7.1340839e-05 2.2739613e-05 2.9387359e-39)
(-8.4688113e-05 2.6509509e-05 3.9750822e-24)
(-9.2810365e-05 3.1438924e-05 2.0458066e-21)
(-8.2603043e-05 2.8279535e-05 2.0724175e-21)
(-7.9995616e-05 2.7466191e-05 -2.0982108e-21)
(-7.6436538e-05 2.6312429e-05 2.1191593e-21)
(-7.405165e-05 2.5530736e-05 2.1389716e-21)
(-7.1804617e-05 2.4804461e-05 0)
(-7.0098537e-05 2.4247572e-05 2.1758241e-21)
(-6.8433872e-05 2.3694585e-05 -2.5567002e-37)
(-6.67533e-05 2.3371419e-05 -2.2080417e-21)
(-7.0764453e-05 2.4870199e-05 -4.4035167e-21)
(-7.6425026e-05 2.7415177e-05 4.3111275e-24)
(-7.4048626e-05 2.7091651e-05 2.2184423e-21)
(-7.0202317e-05 2.5797811e-05 4.3894482e-24)
(-6.8003803e-05 2.5042245e-05 2.2755551e-21)
(-6.5908284e-05 2.4317353e-05 -2.2404923e-24)
(-6.4170938e-05 2.3718605e-05 -2.9387359e-39)
(-6.2669335e-05 2.321156e-05 -2.3342089e-21)
(-6.1511434e-05 2.2808024e-05 -2.3552362e-21)
(-6.0208833e-05 2.2366729e-05 2.3757686e-21)
(-5.9196235e-05 2.2354641e-05 -5.8774718e-39)
(-6.4752627e-05 2.4322646e-05 2.3071041e-24)
(-6.8111139e-05 2.6203549e-05 -2.3277799e-24)
(-6.3389654e-05 2.4652562e-05 -2.4080731e-21)
(-6.1762771e-05 2.4064502e-05 -2.440825e-21)
(-5.9722763e-05 2.3337786e-05 -2.459754e-21)
(-5.8249049e-05 2.2805578e-05 -2.42647e-24)
(-5.6855669e-05 2.2316211e-05 -2.5098969e-21)
(-5.5766816e-05 2.1947376e-05 5.0618365e-21)
(-5.4978238e-05 2.1667414e-05 -2.550591e-21)
(-5.4033089e-05 2.1366496e-05 -2.5721437e-21)
(-5.3635737e-05 2.1685942e-05 1.2568999e-24)
(-6.0757396e-05 2.4310892e-05 -1.3897006e-37)
(-6.5369831e-05 2.6880644e-05 1.2496718e-24)
(-6.0290146e-05 2.5181276e-05 -1.9000637e-24)
(-5.8648918e-05 2.4549912e-05 -2.6239612e-21)
(-5.6586017e-05 2.3771951e-05 -2.6538123e-21)
(-5.5171564e-05 2.3224214e-05 -2.6833145e-21)
(-5.3848998e-05 2.2717729e-05 -4.4302237e-29)
(-5.2763681e-05 2.2306461e-05 6.6733115e-25)
(-5.1865431e-05 2.1966556e-05 -2.7579316e-21)
(-5.1055547e-05 2.1662134e-05 1.8367099e-40)
(-5.0333448e-05 2.1511811e-05 -2.8012098e-21)
(-5.1439093e-05 2.2112209e-05 8.5458267e-26)
(-5.4002156e-05 2.3249836e-05 -1.4038046e-21)
(-5.3554101e-05 2.3277185e-05 -2.8322025e-21)
(-5.1321611e-05 2.2432117e-05 1.7489994e-25)
(-5.0297149e-05 2.2015572e-05 2.8991023e-21)
(-4.9122517e-05 2.1551805e-05 -3.5818235e-25)
(-4.8206609e-05 2.1187019e-05 1.4794172e-21)
(-4.736095e-05 2.0858423e-05 -7.2821982e-25)
(-4.6669399e-05 2.0598025e-05 7.3537201e-25)
(-4.6126588e-05 2.0391506e-05 1.5172557e-21)
(-4.5600467e-05 2.0208892e-05 1.8367099e-40)
(-4.5339931e-05 2.0290446e-05 1.5371889e-21)
(-4.7310409e-05 2.1244886e-05 5.8774718e-39)
(-5.00076e-05 2.2507569e-05 1.5021452e-24)
(-4.914324e-05 2.235437e-05 -1.5158794e-24)
(-4.7236442e-05 2.160955e-05 0)
(-4.6237009e-05 2.1190678e-05 -1.5922579e-21)
(-4.5167062e-05 2.0754364e-05 -1.6094244e-21)
(-4.4321367e-05 2.0406743e-05 1.6261238e-21)
(-4.354943e-05 2.0096116e-05 -1.6417378e-21)
(-4.2902752e-05 1.9845539e-05 -1.6195256e-24)
(-4.2402158e-05 1.9656824e-05 1.6351844e-24)
(-4.2006257e-05 1.95034e-05 -1.6489498e-24)
(-4.1633065e-05 1.944063e-05 1.6972975e-21)
(-4.2201473e-05 1.9953746e-05 1.657529e-24)
(-4.5291287e-05 2.1299101e-05 -5.1657467e-41)
(-4.6394713e-05 2.1983867e-05 -5.2897246e-38)
(-4.3641324e-05 2.0931523e-05 -1.7314989e-21)
(-4.3011526e-05 2.0627566e-05 -3.4287676e-24)
(-4.1807202e-05 2.0126076e-05 -3.5540422e-21)
(-4.1024469e-05 1.978705e-05 1.7553321e-24)
(-4.023339e-05 1.945348e-05 1.7758294e-24)
(-3.9573747e-05 1.917848e-05 -1.7947452e-24)
(-3.8991338e-05 1.8945064e-05 -1.8565359e-21)
(-3.85309e-05 1.8765863e-05 -2.3509887e-38)
(-3.8168154e-05 1.8622266e-05 -5.1691472e-28)
(-3.7848728e-05 1.8548247e-05 1.8613885e-24)
(-3.8045796e-05 1.8840297e-05 2.8289389e-29)
(-3.9829102e-05 1.9666718e-05 -9.5303179e-22)
(-4.0684943e-05 2.0144054e-05 -2.9387359e-39)
(-3.8969297e-05 1.9530498e-05 5.7397185e-42)
(-3.8701694e-05 1.9421674e-05 9.6373573e-25)
(-3.8096128e-05 1.9212474e-05 9.9658138e-22)
(-3.7897672e-05 1.9176938e-05 -1.0073842e-21)
(-3.7829524e-05 1.9211751e-05 1.0141168e-21)
(-3.8023703e-05 1.9377657e-05 1.1754944e-38)
(-3.8561152e-05 1.9712582e-05 -2.0395528e-21)
(-3.9534942e-05 2.0214457e-05 -1.1572487e-27)
(-4.1016833e-05 2.0884946e-05 8.8162076e-39)
(-4.4315018e-05 2.3167932e-05 9.7806026e-22)
(-5.2892862e-05 2.7728258e-05 9.2787402e-22)
(-6.1197701e-05 3.2383165e-05 -1.1754944e-38)
(-6.5241599e-05 4.5053092e-05 -7.580089e-22)
(-3.29329e-05 -3.3486968e-06 -8.7665993e-24)
(-2.9798996e-05 -2.808644e-06 4.3965965e-24)
(-3.1061866e-05 -2.9080276e-06 9.0117678e-21)
(-3.1637967e-05 -2.8369322e-06 -4.4020435e-24)
(-3.0248395e-05 -2.2296567e-06 -4.5022118e-21)
(-2.8293811e-05 -1.865458e-06 -4.5242023e-21)
(-2.8786834e-05 -1.8125029e-06 4.9543098e-38)
(-2.7653618e-05 -1.4582947e-06 -4.5257321e-21)
(-2.6365583e-05 -1.2158011e-06 4.4255897e-24)
(-2.5826651e-05 -1.0748749e-06 -2.2720988e-21)
(-2.5062244e-05 -9.5874829e-07 4.5431357e-21)
(-2.4965037e-05 -9.5047128e-07 -2.2793355e-21)
(-2.4835585e-05 -9.1303293e-07 4.4353582e-24)
(-2.4549523e-05 -8.7869559e-07 4.5413243e-21)
(-2.4412304e-05 -8.5619989e-07 -2.2701449e-21)
(-2.4229264e-05 -8.3723534e-07 2.2706984e-21)
(-2.4149471e-05 -8.3314341e-07 2.2200371e-24)
(-2.4161647e-05 -8.4268489e-07 4.5470974e-21)
(-2.4285178e-05 -8.5368681e-07 -2.2736439e-21)
(-2.4266945e-05 -8.4337572e-07 -2.2204479e-24)
(-2.4455819e-05 -8.4836081e-07 -2.271571e-21)
(-2.4287584e-05 -7.8804375e-07 -1.215179e-37)
(-2.4363757e-05 -7.7702934e-07 -2.2742369e-21)
(-2.4090962e-05 -6.804641e-07 2.9846536e-40)
(-2.3975448e-05 -6.5798829e-07 1.5793194e-40)
(-2.3741661e-05 -5.6253781e-07 -2.2218397e-24)
(-2.358118e-05 -5.4298796e-07 4.444869e-24)
(-2.3374178e-05 -4.5675651e-07 -2.222609e-24)
(-2.3239599e-05 -4.4397628e-07 -1.1393958e-21)
(-2.3041193e-05 -3.6423522e-07 -1.2610237e-29)
(-2.2931253e-05 -3.5877933e-07 1.1397321e-21)
(-2.2769259e-05 -2.8662433e-07 1.1386395e-21)
(-2.2663555e-05 -2.8520433e-07 1.1388877e-21)
(-2.2570723e-05 -2.2505889e-07 -5.6945031e-22)
(-2.2485983e-05 -2.208967e-07 5.6954656e-22)
(-2.2416237e-05 -1.6491914e-07 -5.6955135e-22)
(-2.231822e-05 -1.5270902e-07 -8.6095778e-42)
(-2.2236992e-05 -9.1744494e-08 -1.6561912e-38)
(-2.2017869e-05 -6.6050622e-08 -2.2333799e-38)
(-2.1960579e-05 -1.0189067e-08 -2.7822173e-25)
(-2.1619434e-05 2.9100333e-08 7.1515971e-23)
(-2.1584616e-05 6.5713853e-08 -8.6971032e-27)
(-2.1286988e-05 1.0741919e-07 8.6980731e-27)
(-2.1250457e-05 1.2733945e-07 8.4265773e-39)
(-2.1043421e-05 1.6618151e-07 1.1479437e-41)
(-2.1055517e-05 1.7802547e-07 -5.6967618e-22)
(-2.082163e-05 2.2395709e-07 -5.5687572e-25)
(-2.0918085e-05 2.2950636e-07 5.569263e-25)
(-2.0631105e-05 2.9861052e-07 5.5695093e-25)
(-2.0519253e-05 3.0048321e-07 -1.1140902e-24)
(-2.0348369e-05 3.72379e-07 1.1408497e-21)
(-1.9997136e-05 3.7786191e-07 1.1144425e-24)
(-1.9916048e-05 4.311587e-07 1.6057092e-29)
(-1.9577282e-05 4.4221551e-07 2.2818641e-21)
(-1.9509231e-05 4.7567829e-07 -1.1168969e-29)
(-1.9283472e-05 4.9035711e-07 -2.2834766e-21)
(-1.9193626e-05 5.1577817e-07 2.283679e-21)
(-1.8994177e-05 5.3521264e-07 2.2839188e-21)
(-1.8889713e-05 5.6174873e-07 -9.1835496e-41)
(-1.8595415e-05 5.8937526e-07 -2.2844185e-21)
(-1.8441384e-05 6.1458689e-07 2.2312753e-24)
(-1.8058265e-05 6.4971479e-07 -2.2315165e-24)
(-1.7806382e-05 6.6872252e-07 -2.2879386e-21)
(-1.7365906e-05 7.0699168e-07 -2.2860688e-21)
(-1.6970314e-05 7.1629175e-07 2.233247e-24)
(-1.6447788e-05 7.5095197e-07 6.4284847e-40)
(-1.5918525e-05 7.4584313e-07 4.5767553e-21)
(-1.5305661e-05 7.5867104e-07 -2.5364964e-37)
(-1.4679048e-05 7.2750834e-07 -4.5782798e-21)
(-1.422004e-05 7.1033118e-07 4.5797898e-21)
(-1.3760853e-05 6.6618521e-07 4.5839013e-21)
(-1.331406e-05 6.1802032e-07 1.9873201e-37)
(-1.3180283e-05 5.6649049e-07 -4.5823011e-21)
(-1.2666767e-05 4.9694302e-07 -4.4801811e-24)
(-1.2874511e-05 4.2417366e-07 -2.2944813e-21)
(-1.2408212e-05 3.5980472e-07 -4.5935448e-21)
(-1.264622e-05 2.2243085e-07 1.156298e-21)
(-1.3042252e-05 1.8312572e-07 -4.4819378e-24)
(-1.2729829e-05 1.639706e-08 -1.4316088e-29)
(-1.3747664e-05 -7.489915e-08 -8.251009e-32)
(-1.3331584e-05 -2.0019843e-07 4.4817194e-24)
(-1.4243798e-05 -4.1219981e-07 -8.9590163e-24)
(-1.5176545e-05 -5.4025494e-07 4.4795487e-24)
(-1.5088781e-05 -7.3328592e-07 -4.4783093e-24)
(-1.6401712e-05 -9.8869567e-07 8.9522193e-24)
(-1.7382187e-05 -1.1942534e-06 -4.4753959e-24)
(-1.7638453e-05 -1.4052322e-06 4.473985e-24)
(-1.8941638e-05 -1.7321098e-06 9.1487644e-21)
(-2.0296144e-05 -2.0342975e-06 4.4683094e-24)
(-2.1327453e-05 -2.352888e-06 9.1494749e-21)
(-2.2708154e-05 -2.7237875e-06 9.1435799e-21)
(-2.4675954e-05 -3.1868791e-06 9.1359278e-21)
(-2.6745001e-05 -3.7085405e-06 9.1258495e-21)
(-3.0179876e-05 -4.2973063e-06 9.1154262e-21)
(-3.1024732e-05 -4.5977963e-06 -9.1090213e-21)
(-3.697578e-05 -5.5875219e-06 8.8690147e-24)
(-4.2010548e-05 -7.6665186e-06 1.8016956e-20)
(-8.2553501e-05 -9.8652478e-06 5.730535e-37)
(-3.933034e-05 7.9693822e-06 -2.1523944e-42)
(-0.00011281102 -8.6091194e-05 0)
(-8.0088851e-05 -5.3307603e-05 4.5263742e-23)
(-7.2513079e-05 -4.4088488e-05 -4.9645824e-23)
(-7.7951906e-05 -4.6139523e-05 3.6734198e-40)
(-9.2523888e-05 -5.5682329e-05 -2.6754263e-39)
(-0.00010057114 -5.833318e-05 -3.05927e-38)
(-0.00017321285 -0.00010941057 -2.9387359e-39)
(-0.00011406415 -5.6790755e-05 -9.2858667e-22)
(4.2317949e-05 2.5735427e-05 -4.9744053e-23)
(1.3585202e-05 9.1780437e-06 -3.2067925e-21)
(-5.0242858e-06 1.9872912e-06 4.5466216e-23)
(1.8724553e-07 9.2696612e-07 -2.9387359e-39)
(2.6317621e-05 8.2343133e-06 2.4288113e-21)
(1.9705467e-05 7.1347231e-06 3.4686394e-23)
(1.2076368e-05 5.1508235e-06 -3.2366084e-23)
(3.8375304e-06 3.1839472e-06 -2.3303257e-39)
(-5.0790923e-06 1.068673e-06 -2.2040519e-39)
(-1.4060408e-05 -1.0173126e-06 -3.3014776e-21)
(-2.1427265e-05 -2.6462051e-06 3.6734198e-40)
(-2.6744381e-05 -3.6748704e-06 -5.6854936e-21)
(-2.7424656e-05 -3.5587126e-06 -1.5914233e-27)
(-2.8710594e-05 -3.7969396e-06 -9.8295351e-21)
(-3.1290008e-05 -4.3854252e-06 9.0167023e-24)
(-3.5596874e-05 -5.2241886e-06 -8.5254955e-24)
(-3.3257047e-05 -4.1182461e-06 -4.1418546e-21)
(-3.0083516e-05 -3.4868951e-06 -7.5478296e-24)
(-3.2233589e-05 -3.9763094e-06 1.5322179e-38)
(-3.4910149e-05 -4.4140742e-06 6.9156801e-24)
(-5.5604812e-06 -4.8583003e-05 -5.8225738e-22)
(-4.6391083e-06 -3.9999532e-05 3.797898e-23)
(-6.2820716e-06 -4.6366654e-05 -3.6701069e-23)
(-7.2785016e-06 -5.2171995e-05 5.2529805e-22)
(-9.2860119e-06 -6.5964881e-05 5.2774655e-22)
(-1.3070409e-05 -6.4131407e-05 3.2757765e-23)
(-1.2499918e-05 -5.7562824e-05 1.0483221e-21)
(-1.4251212e-05 -6.2044736e-05 6.5440208e-23)
(-1.6160052e-05 -6.9539319e-05 -3.1364724e-23)
(-1.8420314e-05 -7.837453e-05 1.4693679e-39)
(-2.1801344e-05 -8.9313404e-05 8.5348999e-22)
(-2.8022817e-05 -0.00011197222 -7.4069455e-22)
(-3.8990065e-05 -0.00012618625 7.5918514e-22)
(-3.7973106e-05 -9.3501584e-05 4.6400688e-27)
(-3.0821276e-05 -6.6622216e-05 8.9683102e-44)
(-3.4843972e-05 -7.1673163e-05 2.9387359e-39)
(-3.991802e-05 -8.2027645e-05 1.680462e-21)
(-4.6879628e-05 -9.6445122e-05 2.4663699e-23)
(-5.3514859e-05 -0.00010639487 1.1754944e-38)
(-5.1953113e-05 -9.5522154e-05 1.5573827e-21)
(-5.0365378e-05 -8.7806114e-05 5.033485e-23)
(-5.5376631e-05 -9.4110102e-05 -4.7644653e-23)
(-6.326662e-05 -0.00010625313 2.4427399e-26)
(-7.3495803e-05 -0.00012079712 -3.9655601e-23)
(-9.1598226e-05 -0.00014968388 -1.0707165e-21)
(-0.00011291079 -0.00017119252 1.6498297e-26)
(-9.0185266e-05 -0.0001152376 -1.149184e-21)
(-5.5784933e-05 -5.7651394e-05 4.8958799e-23)
(-5.9485237e-05 -5.8002532e-05 1.5438294e-21)
(-7.2035202e-05 -7.1785726e-05 7.2696948e-27)
(-8.220983e-05 -8.1543551e-05 4.0839392e-23)
(-0.00011158832 -0.00011597634 3.6266891e-23)
(-0.00010351236 -0.00010004157 -3.652869e-23)
(-6.7275594e-05 -5.516694e-05 -2.9535402e-21)
(-6.1049787e-05 -4.559957e-05 -1.6157827e-21)
(-6.9195497e-05 -5.1435397e-05 -1.5434035e-21)
(-8.0679374e-05 -6.1193208e-05 -4.3737258e-23)
(-9.0499554e-05 -6.754965e-05 1.2284696e-21)
(-0.0001220872 -9.5472121e-05 -1.0880433e-21)
(1.1274632e-06 -5.0183335e-05 -3.3109109e-22)
(1.1504939e-06 -3.4381179e-05 4.3252345e-23)
(1.2020518e-06 -2.9566225e-05 3.3253026e-27)
(1.1238108e-06 -2.4037439e-05 -8.92682e-23)
(1.1136219e-06 -2.0551737e-05 4.4967266e-23)
(1.163589e-06 -1.8311076e-05 -7.2572541e-22)
(1.3637278e-06 -1.4811872e-05 -7.789439e-22)
(9.3587908e-07 -9.6298551e-06 8.3136872e-22)
(5.4273263e-07 -6.5339543e-06 -5.8774718e-39)
(5.8685446e-08 -3.3129994e-06 5.523525e-23)
(-3.8477982e-07 -3.8889114e-07 8.6506614e-22)
(-7.8098717e-07 2.376258e-06 -6.4124135e-38)
(-1.3228299e-06 5.1080964e-06 7.7125091e-22)
(-1.900919e-06 8.3911816e-06 6.7160999e-22)
(-3.3633019e-06 1.1350876e-05 -5.6258301e-22)
(-3.8968628e-06 1.7553028e-05 -4.7430833e-22)
(-5.7624899e-06 2.0239826e-05 1.7632415e-38)
(-7.2882025e-06 1.9669948e-05 4.4775685e-22)
(-8.435268e-06 2.0740028e-05 2.764826e-23)
(-9.4784325e-06 2.2567296e-05 1.2856969e-38)
(-1.0524693e-05 2.459584e-05 4.4987941e-27)
(-1.1602855e-05 2.6777819e-05 -3.340298e-22)
(-1.2793927e-05 2.9268435e-05 -5.3812861e-27)
(-1.4420903e-05 3.1813836e-05 -6.8615791e-27)
(-1.5670506e-05 3.637741e-05 -1.5094335e-23)
(-1.7184548e-05 3.9103109e-05 3.1230015e-23)
(-1.8498063e-05 3.7427272e-05 -3.4961146e-28)
(-1.9553634e-05 3.7037636e-05 2.2433352e-22)
(-2.0665856e-05 3.7898238e-05 -2.118111e-22)
(-2.1872555e-05 3.9286084e-05 -1.3214597e-23)
(-2.3184894e-05 4.1067308e-05 4.4081038e-39)
(-2.4664794e-05 4.325484e-05 -1.8195334e-22)
(-2.6376368e-05 4.5854077e-05 1.4693679e-39)
(-2.8369731e-05 4.901251e-05 -1.4693679e-39)
(-3.1223562e-05 5.2533647e-05 -1.4681356e-22)
(-3.4068037e-05 5.8956272e-05 1.3197995e-22)
(-3.8294141e-05 6.774809e-05 -1.3179747e-22)
(-4.1079587e-05 6.7327824e-05 5.8774718e-39)
(-3.9188372e-05 5.4476655e-05 3.3180975e-22)
(-3.739402e-05 4.7615993e-05 1.1668138e-23)
(-3.6641289e-05 4.4696199e-05 3.8169538e-27)
(-3.6913991e-05 4.2833711e-05 1.2542586e-23)
(-3.8012817e-05 4.2232174e-05 1.8342823e-22)
(-3.9608537e-05 4.2875706e-05 -1.1754944e-38)
(-4.1637271e-05 4.4346544e-05 -1.6592668e-22)
(-4.4024818e-05 4.6535734e-05 -1.7638166e-22)
(-4.7108503e-05 4.8917472e-05 -1.5398235e-22)
(-5.0442863e-05 5.3908009e-05 8.9385303e-24)
(-5.3553908e-05 6.187434e-05 1.4328528e-22)
(-5.2211803e-05 5.916751e-05 -3.4661379e-22)
(-4.7265774e-05 4.7374924e-05 1.9945634e-22)
(-4.3651881e-05 4.0824113e-05 2.2230843e-22)
(-4.133761e-05 3.678625e-05 -4.8019588e-22)
(-4.0305594e-05 3.3948203e-05 -2.5250245e-22)
(-4.0377573e-05 3.2424991e-05 -5.8774718e-39)
(-4.1284337e-05 3.2091008e-05 -5.2485745e-22)
(-4.2762252e-05 3.2590248e-05 -2.3017562e-22)
(-4.4526467e-05 3.3762355e-05 -2.3448058e-22)
(-4.6562846e-05 3.5370402e-05 4.4476796e-22)
(-4.8782176e-05 3.736141e-05 -2.1001629e-22)
(-5.1131903e-05 3.9668096e-05 -1.2385257e-23)
(-5.4363212e-05 4.1460873e-05 2.3165153e-23)
(-5.7264793e-05 4.8858652e-05 -1.1351707e-23)
(-5.9310963e-05 5.5008478e-05 2.9387359e-39)
(-5.0910635e-05 4.1743823e-05 1.0992697e-22)
(-4.4413389e-05 3.3653215e-05 1.8182975e-23)
(-3.9288509e-05 2.8175427e-05 1.6428416e-22)
(-3.5772483e-05 2.3483234e-05 3.4195306e-22)
(-3.382422e-05 2.0175398e-05 2.4723909e-23)
(-3.2817474e-05 1.8266697e-05 1.9559967e-22)