/*--------------------------------*- C++ -*----------------------------------*\
| =========                 |                                                 |
| \\      /  F ield         | OpenFOAM: The Open Source CFD Toolbox           |
|  \\    /   O peration     | Version:  v2006                                 |
|   \\  /    A nd           | Website:  www.openfoam.com                      |
|    \\/     M anipulation  |                                                 |
\*---------------------------------------------------------------------------*/
FoamFile
{
    version     2.0;
    format      ascii;
    class       volScalarField;
    location    "6000";
    object      yPlus;
}
// * * * * * * * * * * * * * * * * * * * * * * * * * * * * * * * * * * * * * //

dimensions      [0 0 0 0 0 0 0];


internalField   uniform 0;

boundaryField
{
    Side
    {
        type            empty;
    }
    Ground
    {
        type            calculated;
        value           nonuniform List<scalar> 
645
(
0.72994458
0.72801371
0.7263892
0.72589969
0.72650619
0.72844237
0.731815
0.7368236
0.74369271
0.75254128
0.76333539
0.7760701
0.79083728
0.80710985
0.82507899
0.84785287
0.87386172
0.88693486
0.91757429
1.0596557
1.0810773
1.1268723
1.0980733
1.0723636
1.0471677
1.0231007
0.99992643
0.97763812
0.95617244
0.93547956
0.91550926
0.89618956
0.8774891
0.8594024
0.84191019
0.82500101
0.80865967
0.79291078
0.77779123
0.76328123
0.74961739
0.73751684
1.14178
1.1451347
1.147461
1.1493047
1.1508228
1.1520554
1.1530308
1.153803
1.1544061
1.1548792
1.1552359
1.1554953
1.1556667
1.1557476
1.1557738
1.1557547
1.1556751
1.1555375
1.1553451
1.1551021
1.1547998
1.1544183
1.1539436
1.1533568
1.1526447
1.1517877
1.1507301
1.1494301
1.1478773
1.1460173
1.1437828
1.1411183
1.1379603
1.1342388
1.1298808
1.1248062
1.1189397
1.1121941
1.1044783
1.0957037
1.0857872
1.0746475
1.0621954
1.0483944
1.0331752
1.0163871
0.9979981
0.97801774
0.95639402
0.93308599
0.90806816
0.88132546
0.85284323
0.82260947
0.79060459
0.75679747
0.72115323
0.68353089
0.64381755
0.6019085
0.55750241
0.51013135
0.45905672
0.40302755
0.33975001
0.26372512
0.16122423
0.11749911
0.21960851
0.29646084
0.35343287
0.40646695
0.44783398
0.48116187
0.50847459
0.53260936
0.55565326
0.57728893
0.59725933
0.61608852
0.63329315
0.64919102
0.66396918
0.67764971
0.6902651
0.70169103
0.71198646
0.72131404
0.7299332
0.73796814
0.74553186
0.75254618
0.75899747
0.76512386
0.77090723
0.77631419
0.78147094
0.78638111
0.7910185
0.79537794
0.79948953
0.80332375
0.80692652
0.81029873
0.9196268
0.90204441
0.88531475
0.87766048
0.86938911
0.86278926
0.85621409
0.85067089
0.84571462
0.84150962
0.83776389
0.83440745
0.83143354
0.8286863
0.82631766
0.82412434
0.82219489
0.82043084
0.81879106
0.81726646
0.81580538
0.81445691
0.81312288
0.81192679
0.81075496
0.80961973
0.80861426
0.80757336
0.80663448
0.80579023
0.80488228
0.80408125
0.80333022
0.80251157
0.80176804
0.80105652
0.80029364
0.79953424
0.79880683
0.79805138
0.79721736
0.79644374
0.79566285
0.79479312
0.79394698
0.7931432
0.79231865
0.79137542
0.79051011
0.78965359
0.78872477
0.78768818
0.78671821
0.78572252
0.78461294
0.78338086
0.78216053
0.78087651
0.77945594
0.77791512
0.77632761
0.77464036
0.77278723
0.77077406
0.7686515
0.766454
0.76409834
0.76159501
0.75884848
0.7560786
0.75316338
0.75002028
0.74666968
0.74312054
0.73956911
0.73584436
0.73189912
0.72772986
0.72340256
0.71897786
0.7143342
0.70948001
0.70442229
0.69923508
0.69395541
0.68848417
0.6827754
0.67676584
0.67050309
0.66412876
0.65751962
0.65065177
0.64344828
0.63576141
0.62793365
0.62002081
0.6122251
0.60468859
0.59701097
0.58883376
0.57984329
0.57000799
0.56019353
0.55134024
0.54357183
0.53654477
0.52889333
0.51901858
0.50748129
0.4952753
0.48401261
0.47493859
0.46766108
0.46060779
0.45199546
0.44000616
0.42465791
0.40901984
0.39607587
0.38719
0.38222467
0.37787518
0.37108942
0.36052717
0.34450572
0.32572855
0.3083818
0.29603177
0.29001736
0.28749824
0.28475182
0.27674852
0.26121164
0.24066752
0.2172011
0.19718725
0.1856
0.18183941
0.18195948
0.17958576
0.17210377
0.16289867
0.16022734
0.16676734
0.1744205
0.18064763
0.18753043
0.19876821
0.21665503
0.23851138
0.26018267
0.27739451
0.28862545
0.29658453
0.3048696
0.31637907
0.33204578
0.34980748
0.36640539
0.37950699
0.38907488
0.3975151
0.40686655
0.41811975
0.43143125
0.44518411
0.45765792
0.46819722
0.47739335
0.48654148
0.49631089
0.50692306
0.51821472
0.52949455
0.54020086
0.55024608
0.55998257
0.56977881
0.57998322
0.59095248
0.60232931
0.61322992
0.62312106
0.63297174
0.64360699
0.65483855
0.66623899
0.67689426
0.68691414
0.69704457
0.70761118
0.71825958
0.72840163
0.73812145
0.74781365
0.75728202
0.76633949
0.77497938
0.78312035
0.79060395
0.79765087
0.80481712
0.8120225
0.81885773
0.82529126
0.83130542
0.83703054
0.84254507
0.84763224
0.85231682
0.8566115
0.8605308
0.86399363
0.86693278
0.87001028
0.87348416
0.87651911
0.879224
0.88160195
0.88368822
0.88538851
0.88657164
0.88812178
0.89065489
0.89303748
0.89507204
0.89686216
0.89840164
0.89967327
0.90051587
0.90139231
0.9033553
0.90579046
0.90769585
0.9094647
0.91096903
0.91229806
0.91333085
0.91394344
0.91526464
0.91751066
0.91923274
0.92086988
0.92226227
0.92350343
0.92456894
0.92532059
0.92609509
0.92797485
0.93047156
0.93249207
0.93445548
0.9362024
0.93782454
0.93927677
0.94044206
0.94182954
0.94409024
0.94653077
0.94868855
0.95073555
0.95260461
0.95434466
0.95593408
0.95729464
0.95874865
0.96075658
0.96287571
0.96475465
0.96652334
0.96813044
0.96961374
0.97097446
0.97214672
0.97323572
0.97488685
0.97693209
0.97864908
0.98030378
0.98179108
0.98315504
0.98440332
0.98551893
0.98642801
0.98756743
0.98916791
0.990639
0.99198775
0.99320663
0.99429634
0.99526405
0.99612796
0.99686395
0.99741829
0.99821434
0.9993326
1.0001959
1.0009944
1.0016574
1.0022118
1.0026543
1.0030029
1.0032386
1.0033144
1.003621
1.0042582
1.0046785
1.0050326
1.0052645
1.0053963
1.0054245
1.0053546
1.0051852
1.0049025
1.0046382
1.0045197
1.0043698
1.0041231
1.0037851
1.0032757
1.0026011
1.0019272
1.0012615
1.0004915
0.99960954
0.99874914
0.99798147
0.9970999
0.99614253
0.9951024
0.99397801
0.99277054
0.99148908
0.9901379
0.98871269
0.9872091
0.98579529
0.98451096
0.98309041
0.9815894
0.97998864
0.97827198
0.97646098
0.97465145
0.97284233
0.97095912
0.96901319
0.96706143
0.96513675
0.96318085
0.96110575
0.95895406
0.95674462
0.95448
0.95216001
0.94978471
0.94736125
0.94489765
0.94238226
0.93982647
0.93728079
0.93471027
0.93208052
0.92939499
0.92665412
0.92385476
0.92098475
0.91801985
0.91501049
0.91203376
0.90905216
0.90602234
0.90300294
0.90000716
0.89695764
0.8938792
0.89077289
0.88765234
0.88450927
0.88128741
0.87794172
0.87452679
0.87118638
0.86793007
0.86459542
0.86117627
0.85774779
0.85427692
0.85077342
0.84723688
0.84366639
0.84006233
0.83642057
0.83274376
0.82903735
0.82529779
0.82151507
0.81768858
0.81385244
0.68400472
0.71607108
0.74494616
0.77044198
0.79279276
0.81260226
0.83076964
0.84844043
0.86657279
0.88555344
0.90514858
0.92470288
0.94351321
0.96105569
0.97704717
0.99128665
1.0036158
1.0136437
1.020688
1.0236684
1.0221718
1.0157477
1.0038951
0.985045
0.95260876
0.89923554
0.82514342
0.75454126
0.72390782
0.73628964
0.76435003
0.79284271
0.82158047
0.8508262
0.88035527
0.91023787
0.9400028
0.96876027
0.9957409
1.0203208
1.0418621
1.059871
1.0737827
1.0832606
1.0882967
1.088822
1.0850473
1.0774661
1.0666777
1.05336
1.0382582
1.0222616
1.0062466
0.99080483
0.97637787
0.96380442
0.95337701
0.94449895
0.93985458
0.93669464
0.92497723
0.64800717
0.61183745
0.58014459
0.55290174
0.52982227
0.51033116
0.49375706
0.4796005
0.46741401
0.45684569
0.447614
0.43949278
0.43229942
0.4258906
0.42015415
0.41499808
0.41034619
0.4061344
0.40230872
0.39882436
0.39564249
0.39273108
0.39006034
0.38760765
0.38534802
0.38326899
0.38134396
0.37957585
0.377923
0.37642189
0.37498222
0.37372837
0.37242732
0.37144835
0.37013386
0.36958221
0.36785908
0.36817586
0.36608799
)
;
    }
    Inlet
    {
        type            calculated;
        value           uniform 0;
    }
    Airfoil
    {
        type            calculated;
        value           nonuniform List<scalar> 
646
(
0.49122084
0.5095066
1.1374693
0.87143916
0.97038464
0.90293499
0.92586404
0.88743926
0.86537393
0.83246853
0.81962242
0.80143751
0.79426808
0.78134955
0.77309222
0.763976
0.75379909
0.74704277
0.73829235
0.73149401
0.72277517
0.71614119
0.70799857
0.69942607
0.69320241
0.68403742
0.67752989
0.67080733
0.66154939
0.65585516
0.64896868
0.64006046
0.63402817
0.62718267
0.61873263
0.6120274
0.60512054
0.5974768
0.58978927
0.58373333
0.5763426
0.56873661
0.56206138
0.5562737
0.54834756
0.54168307
0.53522515
0.53012946
0.52184763
0.5156194
0.50904283
0.50403729
0.49618059
0.48971034
0.48309753
0.47764726
0.47062029
0.46353558
0.45716325
0.45071333
0.44466134
0.43665774
0.43080869
0.42303511
0.41796969
0.40952371
0.40322422
0.39553887
0.38813868
0.38305417
0.37359669
0.36775718
0.3579845
0.35098817
0.34447055
0.33566218
0.32840726
0.31665877
0.30905051
0.30087551
0.29165867
0.28214616
0.26755968
0.25708463
0.24720679
0.23441589
0.22284703
0.20193651
0.18299826
0.17547892
0.15094712
0.14480603
0.11520192
0.12626624
0.13006865
0.1551918
0.16588932
0.19423563
0.23349953
0.24790563
0.2555028
0.273527
0.27644295
0.30722635
0.33778308
0.33663363
0.34817272
0.35694619
0.36559112
0.39000378
0.40891128
0.41055913
0.41954014
0.4262386
0.4353176
0.45827563
0.47376976
0.47521833
0.48244494
0.48841884
0.49518324
0.51979073
0.53816402
0.53701885
0.54262519
0.5489649
0.54905977
0.57446741
0.6014768
0.59620153
0.60054824
0.60481086
0.60522822
0.62088043
0.64757486
0.6522906
0.65233838
0.65527199
0.6582283
0.65975017
0.6826642
0.704213
0.69907409
0.70131177
0.70358941
0.70422796
0.71274693
0.73481298
0.74468268
0.74235227
0.74405784
0.74618237
0.74600064
0.75663812
0.77610848
0.78014037
0.77941517
0.78100848
0.78305304
0.78297839
0.79302545
0.81045589
0.81358797
0.8132215
0.81483868
0.81686285
0.81637305
0.82683925
0.84981891
0.85710783
0.85443812
0.85521532
0.85679956
0.85626475
0.86115946
0.89182104
0.91364779
0.90544978
0.90474595
0.90534701
0.90586762
0.89947551
0.92713471
0.96588238
0.9585272
0.9557516
0.95467748
0.95497738
0.95375636
0.95773895
0.97962197
0.99406079
0.98842795
0.98820046
0.9884281
0.98923299
0.98934714
0.9938543
1.0021968
1.0045935
1.0044478
1.0052506
1.0066726
1.0074593
1.0044315
1.0208029
1.0460915
1.044263
1.0403183
1.0379461
1.0374443
1.0338234
1.0171878
1.0829439
1.1726706
1.1564533
1.1405033
1.1292203
1.1232471
1.1158627
1.0837768
1.1660692
1.3192953
1.3245791
1.282153
1.2614379
1.2452049
1.2319475
1.202985
1.2278928
1.4013246
1.4867375
1.4099401
1.3875878
1.3643516
1.351449
1.3327323
1.2785319
1.420451
1.5703012
1.4881827
1.4622885
1.4343773
1.415272
1.3982617
1.3624676
1.3790909
1.5832661
1.6777209
1.5761603
1.5487601
1.5168603
1.4963242
1.476506
1.4343678
1.4984936
1.6660873
1.6839023
1.6117477
1.5836578
1.5561835
1.5367504
1.5190773
1.4873733
1.5311673
1.6545464
1.665064
1.6039671
1.5796445
1.554274
1.5351477
1.5200186
1.4950755
1.4995634
1.6586169
1.7236405
1.6310731
1.6093771
1.579248
1.5590611
1.5430993
1.5268083
1.4937329
1.5989958
1.7082287
1.6575418
1.6182472
1.5913915
1.569841
1.5515522
1.5398222
1.5240348
1.4973648
1.61964
1.692502
1.6078422
1.5922979
1.5655932
1.5486707
1.5326819
1.5242162
1.5099055
1.4882815
1.6286252
1.7094291
1.621411
1.6045013
1.5770264
1.5605719
1.544901
1.5344172
1.5239111
1.5135615
1.5665168
1.6318762
1.6117525
1.5777177
1.5609109
1.5445785
1.5318176
1.521401
1.5146828
1.5059438
1.5017632
1.5776126
1.6176383
1.5680268
1.5553422
1.5369975
1.5252205
1.5141021
1.506658
1.5028728
1.4969607
1.5002406
1.6027733
1.6562867
1.5974156
1.5828938
1.5622767
1.5497543
1.538094
1.5294082
1.5230921
1.5178329
1.5142785
1.5379166
1.578081
1.5731717
1.5470802
1.5380833
1.5265645
1.5186285
1.5115584
1.5067097
1.5040121
1.5015658
1.5042316
1.5429156
1.585281
1.5723839
1.5481439
1.5377596
1.5259747
1.5175474
1.5101477
1.5047065
1.50161
1.5001673
1.4996026
1.5167463
1.5746812
1.5865753
1.5457615
1.5398781
1.5240677
1.5152208
1.5060462
1.4990437
1.4933364
1.489756
1.4878671
1.4871338
1.497252
1.5365577
1.5477708
1.5210952
1.5207953
1.5144263
1.5157054
1.5195995
1.5287006
1.544584
1.5685347
1.6019129
1.6746532
1.8355303
1.9867649
2.1217284
1.5727447
1.4910809
1.5180987
1.5278753
1.4850816
1.4318936
1.440708
1.4067175
1.37019
1.3531963
1.3309888
1.3272956
1.3224404
1.3137011
1.3089524
1.3031156
1.3001768
1.2998383
1.3024398
1.301105
1.3053845
1.2996747
1.3009078
1.2922074
1.2883876
1.2808388
1.2759209
1.2692714
1.2651665
1.2589023
1.2555728
1.2504481
1.2473085
1.2442371
1.2417111
1.239397
1.2365317
1.2340022
1.2278049
1.2260782
1.2164928
1.2155377
1.2072031
1.2062924
1.20057
1.2011031
1.1946876
1.1976873
1.1899011
1.1869776
1.1826396
1.1728148
1.1710971
1.1616341
1.1602699
1.1541548
1.1521554
1.146876
1.1445079
1.1364825
1.1326572
1.122
1.1151313
1.1026474
1.0911005
1.0757526
1.0594335
1.0403682
1.0197768
1.0046838
0.98884457
0.97303953
0.9679358
0.94881291
0.95514594
0.93745133
0.94305792
0.95666965
0.94147177
0.9750565
0.95740096
0.98279072
1.0105736
1.002068
1.0366701
1.0614244
1.0627241
1.0915329
1.1218027
1.1412397
1.167676
1.2060324
1.2437405
1.3109078
1.323085
1.4277147
1.4773643
2.1163973
1.7761276
3.8222463
3.1330631
2.9216594
3.0008537
3.2595765
3.3621858
4.4489481
3.2396083
1.9871309
1.1406408
0.62462539
0.27159939
1.4253196
1.2420867
0.97762315
0.58570891
0.60789852
1.0214845
1.2677215
1.4178297
1.4329498
1.4693135
1.5380835
1.6446708
1.580579
1.5053994
1.5627336
1.6305811
1.9546026
1.7687545
1.9038233
2.0169734
2.2679369
2.2943389
2.1747612
2.259179
2.3909973
2.5378031
2.7103773
3.0397632
3.3149031
2.9343868
2.502354
2.6103966
2.7985009
3.0423405
3.2225524
3.0915178
2.9905876
3.1156082
3.3268002
3.5691902
3.9952946
4.3520671
3.655073
2.7209439
2.7828289
3.1007716
3.3319395
3.9640923
3.7107163
2.9047138
2.7390502
2.9405148
3.218955
3.4323315
4.0675545
1.9262222
1.7035576
1.6818018
1.6067265
1.5671166
1.5534807
1.4159908
1.1927757
1.0203764
0.75137933
0.2525043
0.69393248
1.0505154
1.3912147
1.6708694
2.1306822
2.14941
2.1982498
2.3222709
2.483801
2.6544422
2.8314273
3.0237673
3.2219924
3.4994031
3.4940234
3.4871313
3.5463641
3.6559698
3.7877125
3.9353209
4.1003454
4.2834574
4.4913502
4.722884
5.0517256
5.0449463
4.5632138
4.2736944
4.0952949
4.0406986
4.0390237
4.0866023
4.1785025
4.3026118
4.4549463
4.6249742
4.8624496
4.7219389
4.2595187
3.9588551
3.7618394
3.6457029
3.5834063
3.5746523
3.6133335
3.6848598
3.7776815
3.885956
4.0051831
4.1355883
4.2658854
4.4356
3.7917611
3.4522516
3.1859314
2.9831648
2.8229796
2.7187506
2.66401
2.6491457
2.670776
2.7111943
2.7630468
2.8220334
2.8889114
2.9635999
3.047339
3.1442306
3.2558788
3.3502114
)
;
    }
    Outlet
    {
        type            calculated;
        value           uniform 0;
    }
}


// ************************************************************************* //
