/*--------------------------------*- C++ -*----------------------------------*\
| =========                 |                                                 |
| \\      /  F ield         | OpenFOAM: The Open Source CFD Toolbox           |
|  \\    /   O peration     | Version:  v2006                                 |
|   \\  /    A nd           | Website:  www.openfoam.com                      |
|    \\/     M anipulation  |                                                 |
\*---------------------------------------------------------------------------*/
FoamFile
{
    version     2.0;
    format      ascii;
    class       volScalarField;
    location    "5000";
    object      alphat;
}
// * * * * * * * * * * * * * * * * * * * * * * * * * * * * * * * * * * * * * //

dimensions      [1 -1 -1 0 0 0 0];


internalField   nonuniform List<scalar> 
102907
(
3.2563851e-11
3.4606002e-10
3.6614051e-09
1.3817993e-08
3.0508332e-08
4.9137272e-08
6.5103033e-08
7.6555971e-08
8.3882071e-08
8.8243686e-08
9.0725408e-08
9.2095723e-08
9.2835967e-08
9.3228556e-08
9.3432777e-08
9.353619e-08
9.3586467e-08
9.360911e-08
9.3617614e-08
9.3619e-08
9.3616924e-08
9.3613234e-08
9.360889e-08
9.3604355e-08
9.3599883e-08
9.3595576e-08
9.3591504e-08
9.3587679e-08
9.3584133e-08
9.3580854e-08
9.3577867e-08
9.3575153e-08
9.3572738e-08
9.3570595e-08
9.3568753e-08
9.3567176e-08
9.3565899e-08
9.3564868e-08
9.3564116e-08
9.3563578e-08
9.3563321e-08
9.356344e-08
9.3564065e-08
9.3565056e-08
9.3566399e-08
9.3568007e-08
9.3569927e-08
9.3572094e-08
9.3574565e-08
9.3577279e-08
9.3580294e-08
9.3583555e-08
9.3587116e-08
9.3590925e-08
9.3595037e-08
9.3599397e-08
9.3604066e-08
9.3608988e-08
9.3614221e-08
9.3619713e-08
9.3625522e-08
9.3631595e-08
9.3637995e-08
9.364467e-08
9.3651681e-08
9.3658985e-08
9.3666645e-08
9.3674617e-08
9.3682967e-08
9.3691658e-08
9.370076e-08
9.3710238e-08
9.3720171e-08
9.3730528e-08
9.3741402e-08
9.375277e-08
9.3764744e-08
9.3777323e-08
9.3790653e-08
9.3804808e-08
9.3820011e-08
3.3739059e-11
4.4591326e-10
4.5486788e-09
1.6384325e-08
3.4684968e-08
5.386962e-08
6.9348508e-08
7.9871506e-08
8.6301987e-08
8.9985279e-08
9.2012451e-08
9.3099134e-08
9.3670283e-08
9.3965213e-08
9.411432e-08
9.4187057e-08
9.4220542e-08
9.4234088e-08
9.4237694e-08
9.423642e-08
9.4232876e-08
9.4228327e-08
9.422345e-08
9.421854e-08
9.4213776e-08
9.4209214e-08
9.4204911e-08
9.4200865e-08
9.4197103e-08
9.4193609e-08
9.4190408e-08
9.4187477e-08
9.4184847e-08
9.4182482e-08
9.4180421e-08
9.417862e-08
9.4177124e-08
9.4175864e-08
9.4174882e-08
9.417409e-08
9.417354e-08
9.4173378e-08
9.4173776e-08
9.4174528e-08
9.4175621e-08
9.4176962e-08
9.4178614e-08
9.4180499e-08
9.4182688e-08
9.4185106e-08
9.4187823e-08
9.419077e-08
9.4194021e-08
9.4197499e-08
9.4201285e-08
9.4205297e-08
9.4209625e-08
9.421418e-08
9.4219053e-08
9.4224156e-08
9.4229585e-08
9.4235245e-08
9.4241239e-08
9.4247474e-08
9.4254046e-08
9.4260876e-08
9.4268062e-08
9.427552e-08
9.428335e-08
9.4291478e-08
9.4300007e-08
9.4308859e-08
9.4318151e-08
9.4327807e-08
9.4337953e-08
9.4348521e-08
9.4359657e-08
9.437131e-08
9.4383658e-08
9.4396735e-08
9.4410786e-08
3.5430856e-11
5.7648156e-10
5.6292553e-09
1.9321156e-08
3.9181654e-08
5.86767e-08
7.3454327e-08
8.2965819e-08
8.8515994e-08
9.1573404e-08
9.3200155e-08
9.4045982e-08
9.447789e-08
9.4694587e-08
9.4800614e-08
9.4849783e-08
9.4870646e-08
9.4877463e-08
9.4877506e-08
9.4874294e-08
9.4869688e-08
9.4864492e-08
9.4859212e-08
9.4853987e-08
9.4848986e-08
9.4844189e-08
9.4839687e-08
9.4835424e-08
9.4831471e-08
9.4827765e-08
9.4824373e-08
9.482123e-08
9.4818406e-08
9.4815825e-08
9.4813564e-08
9.4811541e-08
9.4809836e-08
9.480835e-08
9.4807155e-08
9.4806129e-08
9.4805346e-08
9.4804737e-08
9.4805018e-08
9.4805538e-08
9.4806386e-08
9.4807459e-08
9.4808852e-08
9.4810456e-08
9.481237e-08
9.4814492e-08
9.4816921e-08
9.4819558e-08
9.4822506e-08
9.4825658e-08
9.4829124e-08
9.4832796e-08
9.4836783e-08
9.484098e-08
9.4845492e-08
9.4850217e-08
9.4855257e-08
9.4860517e-08
9.4866093e-08
9.4871898e-08
9.4878026e-08
9.4884396e-08
9.4891098e-08
9.4898057e-08
9.4905362e-08
9.4912944e-08
9.4920893e-08
9.4929142e-08
9.4937787e-08
9.4946765e-08
9.495618e-08
9.4965974e-08
9.4976269e-08
9.498703e-08
9.4998397e-08
9.5010436e-08
9.502335e-08
3.7931783e-11
7.4717476e-10
6.939286e-09
2.2657582e-08
4.3973336e-08
6.3500887e-08
7.7378381e-08
8.5826721e-08
9.0531748e-08
9.3023158e-08
9.4303711e-08
9.494877e-08
9.5268118e-08
9.5423358e-08
9.5496367e-08
9.5527721e-08
9.5539282e-08
9.5541248e-08
9.5538732e-08
9.5534148e-08
9.5528761e-08
9.5523094e-08
9.5517487e-08
9.5512016e-08
9.5506798e-08
9.5501808e-08
9.5497114e-08
9.5492669e-08
9.5488526e-08
9.5484638e-08
9.5481053e-08
9.5477728e-08
9.5474705e-08
9.5471939e-08
9.5469472e-08
9.5467258e-08
9.5465337e-08
9.5463655e-08
9.5462234e-08
9.5461002e-08
9.5459961e-08
9.5459026e-08
9.5459042e-08
9.5459392e-08
9.546001e-08
9.546084e-08
9.5461966e-08
9.5463314e-08
9.5464944e-08
9.5466796e-08
9.5468926e-08
9.5471279e-08
9.547391e-08
9.5476763e-08
9.5479894e-08
9.5483249e-08
9.548688e-08
9.5490739e-08
9.5494874e-08
9.5499239e-08
9.5503879e-08
9.5508755e-08
9.5513907e-08
9.5519301e-08
9.5524976e-08
9.5530903e-08
9.5537119e-08
9.5543595e-08
9.5550373e-08
9.5557424e-08
9.5564793e-08
9.5572452e-08
9.5580453e-08
9.5588768e-08
9.5597457e-08
9.5606497e-08
9.561596e-08
9.562585e-08
9.5636251e-08
9.5647279e-08
9.5659077e-08
4.1401846e-11
9.7021731e-10
8.5203716e-09
2.6419489e-08
4.9024254e-08
6.8281803e-08
8.1084871e-08
8.8449558e-08
9.236171e-08
9.4351642e-08
9.5338682e-08
9.5819596e-08
9.604971e-08
9.6158153e-08
9.620547e-08
9.6223971e-08
9.6228893e-08
9.6227438e-08
9.6223129e-08
9.621758e-08
9.6211635e-08
9.6205616e-08
9.6199756e-08
9.619408e-08
9.6188681e-08
9.6183519e-08
9.617866e-08
9.6174046e-08
9.6169738e-08
9.6165678e-08
9.6161925e-08
9.6158423e-08
9.6155227e-08
9.6152278e-08
9.6149629e-08
9.6147226e-08
9.6145114e-08
9.6143236e-08
9.6141617e-08
9.6140183e-08
9.6138935e-08
9.6137787e-08
9.6137336e-08
9.6137535e-08
9.6137937e-08
9.6138577e-08
9.613947e-08
9.6140554e-08
9.6141922e-08
9.61435e-08
9.6145348e-08
9.6147413e-08
9.6149742e-08
9.6152294e-08
9.6155102e-08
9.6158136e-08
9.6161424e-08
9.6164942e-08
9.6168712e-08
9.6172716e-08
9.6176968e-08
9.618146e-08
9.61862e-08
9.6191183e-08
9.6196418e-08
9.6201903e-08
9.6207643e-08
9.6213639e-08
9.6219898e-08
9.6226422e-08
9.6233221e-08
9.6240297e-08
9.6247664e-08
9.6255326e-08
9.6263301e-08
9.62716e-08
9.6280247e-08
9.6289283e-08
9.6298738e-08
9.6308777e-08
9.631949e-08
4.6133737e-11
1.2615251e-09
1.0419793e-08
3.0626997e-08
5.4286422e-08
7.2957676e-08
8.4545092e-08
9.0836604e-08
9.4022032e-08
9.5577043e-08
9.6320369e-08
9.6669892e-08
9.6830603e-08
9.6904034e-08
9.6932452e-08
9.6941632e-08
9.6941881e-08
9.6938065e-08
9.6932523e-08
9.6926314e-08
9.6919972e-08
9.69137e-08
9.6907639e-08
9.6901801e-08
9.6896246e-08
9.6890941e-08
9.6885933e-08
9.6881177e-08
9.6876718e-08
9.6872511e-08
9.6868603e-08
9.6864947e-08
9.6861586e-08
9.6858478e-08
9.6855657e-08
9.6853085e-08
9.6850791e-08
9.6848737e-08
9.6846928e-08
9.6845312e-08
9.6843867e-08
9.6842527e-08
9.6841703e-08
9.6841711e-08
9.6841835e-08
9.6842262e-08
9.6842938e-08
9.6843822e-08
9.6844943e-08
9.6846252e-08
9.6847827e-08
9.6849613e-08
9.6851644e-08
9.6853903e-08
9.6856391e-08
9.6859114e-08
9.686206e-08
9.6865247e-08
9.6868656e-08
9.6872307e-08
9.6876177e-08
9.6880292e-08
9.6884626e-08
9.6889206e-08
9.6894006e-08
9.6899054e-08
9.6904324e-08
9.6909846e-08
9.6915593e-08
9.6921597e-08
9.6927834e-08
9.6934336e-08
9.6941079e-08
9.69481e-08
9.6955373e-08
9.6962945e-08
9.6970793e-08
9.6978993e-08
9.6987524e-08
9.6996595e-08
9.7006256e-08
5.2501974e-11
1.6417389e-09
1.269089e-08
3.5292112e-08
5.9699751e-08
7.7468219e-08
8.7738906e-08
9.2996855e-08
9.5531864e-08
9.6718084e-08
9.726351e-08
9.7510269e-08
9.761985e-08
9.766472e-08
9.7680609e-08
9.7683491e-08
9.7680576e-08
9.7675189e-08
9.7668819e-08
9.7662176e-08
9.7655552e-08
9.7649108e-08
9.7642888e-08
9.7636934e-08
9.7631244e-08
9.7625831e-08
9.7620689e-08
9.7615821e-08
9.7611225e-08
9.76069e-08
9.7602847e-08
9.7599065e-08
9.7595551e-08
9.7592307e-08
9.7589326e-08
9.7586609e-08
9.7584145e-08
9.7581936e-08
9.757995e-08
9.7578171e-08
9.7576541e-08
9.7575032e-08
9.7573987e-08
9.7573715e-08
9.7573465e-08
9.7573739e-08
9.7574189e-08
9.7574849e-08
9.757574e-08
9.757684e-08
9.757816e-08
9.757967e-08
9.7581411e-08
9.7583386e-08
9.7585559e-08
9.7587981e-08
9.7590593e-08
9.7593458e-08
9.7596513e-08
9.7599818e-08
9.7603313e-08
9.760706e-08
9.7610993e-08
9.7615176e-08
9.7619545e-08
9.7624165e-08
9.762897e-08
9.7634026e-08
9.7639268e-08
9.7644762e-08
9.7650444e-08
9.7656383e-08
9.7662514e-08
9.7668906e-08
9.7675492e-08
9.7682353e-08
9.7689419e-08
9.7696802e-08
9.7704434e-08
9.7712559e-08
9.7721204e-08
6.1048952e-11
2.1375656e-09
1.5393245e-08
4.0415617e-08
6.5192558e-08
8.1757455e-08
9.0655556e-08
9.4945323e-08
9.6912503e-08
9.7793415e-08
9.8182031e-08
9.8350157e-08
9.8421636e-08
9.8447123e-08
9.8453869e-08
9.845238e-08
9.8447366e-08
9.8440947e-08
9.8434058e-08
9.8427129e-08
9.8420334e-08
9.8413766e-08
9.8407446e-08
9.8401399e-08
9.8395618e-08
9.8390114e-08
9.8384876e-08
9.8379913e-08
9.8375212e-08
9.8370785e-08
9.8366617e-08
9.8362723e-08
9.8359085e-08
9.8355719e-08
9.8352604e-08
9.8349756e-08
9.8347147e-08
9.8344796e-08
9.8342656e-08
9.8340727e-08
9.8338933e-08
9.8337264e-08
9.8336028e-08
9.8335561e-08
9.8334882e-08
9.8335037e-08
9.8335232e-08
9.8335669e-08
9.8336323e-08
9.8337194e-08
9.8338271e-08
9.833956e-08
9.8341043e-08
9.8342729e-08
9.8344607e-08
9.8346729e-08
9.834902e-08
9.8351565e-08
9.8354283e-08
9.8357242e-08
9.8360376e-08
9.8363755e-08
9.83673e-08
9.8371085e-08
9.8375037e-08
9.8379229e-08
9.8383584e-08
9.8388175e-08
9.8392927e-08
9.8397914e-08
9.8403059e-08
9.8408441e-08
9.8413975e-08
9.8419747e-08
9.8425666e-08
9.8431827e-08
9.8438136e-08
9.844472e-08
9.8451481e-08
9.8458683e-08
9.8466351e-08
7.25849e-11
2.7834851e-09
1.8592697e-08
4.5983541e-08
7.068319e-08
8.5776812e-08
9.3294117e-08
9.6702286e-08
9.8186551e-08
9.8821237e-08
9.908887e-08
9.9199971e-08
9.9241575e-08
9.9254525e-08
9.9255283e-08
9.9251001e-08
9.9244648e-08
9.9237618e-08
9.9230404e-08
9.9223331e-08
9.9216424e-08
9.9209804e-08
9.920341e-08
9.9197325e-08
9.9191471e-08
9.9185924e-08
9.9180605e-08
9.917559e-08
9.91708e-08
9.9166309e-08
9.9162042e-08
9.9158071e-08
9.9154322e-08
9.9150867e-08
9.9147631e-08
9.9144682e-08
9.9141942e-08
9.9139478e-08
9.9137195e-08
9.9135144e-08
9.9133199e-08
9.9131397e-08
9.9129978e-08
9.9129349e-08
9.9128441e-08
9.9128258e-08
9.9128213e-08
9.9128463e-08
9.9128894e-08
9.9129546e-08
9.9130379e-08
9.913143e-08
9.9132659e-08
9.9134104e-08
9.9135723e-08
9.9137555e-08
9.9139534e-08
9.9141768e-08
9.9144159e-08
9.9146778e-08
9.9149561e-08
9.9152577e-08
9.9155744e-08
9.9159138e-08
9.9162683e-08
9.9166455e-08
9.9170369e-08
9.9174505e-08
9.9178777e-08
9.9183267e-08
9.9187887e-08
9.919272e-08
9.9197676e-08
9.9202839e-08
9.9208111e-08
9.9213587e-08
9.9219166e-08
9.9224968e-08
9.923089e-08
9.9237195e-08
9.924393e-08
8.8348453e-11
3.6239389e-09
2.2361009e-08
5.1963072e-08
7.6082775e-08
8.9487882e-08
9.5663384e-08
9.8292051e-08
9.9377112e-08
9.9818762e-08
9.9996198e-08
1.0006488e-07
1.000871e-07
1.0009132e-07
1.0008818e-07
1.0008213e-07
1.0007501e-07
1.0006762e-07
1.0006027e-07
1.0005312e-07
1.000462e-07
1.0003955e-07
1.0003316e-07
1.0002705e-07
1.0002118e-07
1.000156e-07
1.0001026e-07
1.0000521e-07
1.0000038e-07
9.9995837e-08
9.9991519e-08
9.9987484e-08
9.9983669e-08
9.9980136e-08
9.9976818e-08
9.9973779e-08
9.9970944e-08
9.9968377e-08
9.9965986e-08
9.9963823e-08
9.996176e-08
9.9959836e-08
9.9958265e-08
9.9957476e-08
9.9956381e-08
9.9956034e-08
9.9955547e-08
9.9955666e-08
9.9955889e-08
9.9956331e-08
9.9956939e-08
9.9957757e-08
9.9958742e-08
9.9959932e-08
9.996129e-08
9.996285e-08
9.9964576e-08
9.9966501e-08
9.9968586e-08
9.9970863e-08
9.997331e-08
9.9975969e-08
9.9978772e-08
9.9981778e-08
9.9984931e-08
9.9988287e-08
9.9991776e-08
9.9995462e-08
9.999927e-08
1.0000327e-07
1.0000738e-07
1.0001168e-07
1.0001607e-07
1.0002064e-07
1.0002529e-07
1.0003009e-07
1.0003497e-07
1.0004001e-07
1.0004513e-07
1.0005057e-07
1.0005641e-07
1.103407e-10
4.71623e-09
2.6774837e-08
5.8298221e-08
8.129921e-08
9.2865066e-08
9.7781211e-08
9.9741942e-08
1.0050698e-07
1.0080202e-07
1.0091499e-07
1.0095271e-07
1.0096248e-07
1.0096123e-07
1.0095573e-07
1.0094868e-07
1.0094116e-07
1.0093363e-07
1.0092625e-07
1.0091912e-07
1.0091223e-07
1.0090562e-07
1.0089926e-07
1.0089318e-07
1.0088734e-07
1.0088178e-07
1.0087645e-07
1.0087139e-07
1.0086657e-07
1.0086201e-07
1.0085767e-07
1.0085361e-07
1.0084976e-07
1.0084618e-07
1.0084281e-07
1.008397e-07
1.008368e-07
1.0083416e-07
1.0083168e-07
1.0082943e-07
1.0082728e-07
1.0082526e-07
1.0082355e-07
1.0082263e-07
1.0082136e-07
1.0082086e-07
1.0082009e-07
1.0082001e-07
1.0081999e-07
1.0082024e-07
1.0082065e-07
1.0082124e-07
1.00822e-07
1.0082295e-07
1.0082405e-07
1.0082535e-07
1.008268e-07
1.0082843e-07
1.0083023e-07
1.0083221e-07
1.0083434e-07
1.0083664e-07
1.008391e-07
1.0084172e-07
1.008445e-07
1.0084745e-07
1.0085052e-07
1.0085377e-07
1.0085713e-07
1.0086065e-07
1.0086427e-07
1.0086804e-07
1.0087189e-07
1.0087588e-07
1.0087992e-07
1.0088409e-07
1.0088828e-07
1.008926e-07
1.0089694e-07
1.0090155e-07
1.0090655e-07
1.4187819e-10
6.1344541e-09
3.1913606e-08
6.4905663e-08
8.6242563e-08
9.5897307e-08
9.9673407e-08
1.010809e-07
1.0159808e-07
1.0178688e-07
1.0185226e-07
1.0187089e-07
1.0187264e-07
1.0186809e-07
1.0186125e-07
1.0185372e-07
1.0184607e-07
1.0183856e-07
1.0183125e-07
1.0182421e-07
1.0181742e-07
1.0181091e-07
1.0180463e-07
1.0179863e-07
1.0179286e-07
1.0178737e-07
1.0178209e-07
1.0177708e-07
1.0177229e-07
1.0176776e-07
1.0176344e-07
1.0175939e-07
1.0175553e-07
1.0175195e-07
1.0174855e-07
1.0174542e-07
1.0174248e-07
1.0173979e-07
1.0173726e-07
1.0173495e-07
1.0173274e-07
1.0173065e-07
1.0172883e-07
1.017278e-07
1.0172638e-07
1.0172575e-07
1.017248e-07
1.0172457e-07
1.0172416e-07
1.0172429e-07
1.0172451e-07
1.017249e-07
1.0172545e-07
1.0172616e-07
1.0172704e-07
1.0172807e-07
1.0172927e-07
1.0173062e-07
1.0173214e-07
1.0173381e-07
1.0173563e-07
1.0173761e-07
1.0173973e-07
1.01742e-07
1.0174441e-07
1.0174697e-07
1.0174964e-07
1.0175246e-07
1.0175538e-07
1.0175844e-07
1.0176158e-07
1.0176485e-07
1.0176817e-07
1.0177161e-07
1.0177507e-07
1.0177863e-07
1.0178217e-07
1.017858e-07
1.0178938e-07
1.017932e-07
1.0179739e-07
1.8863816e-10
7.9750498e-09
3.7855287e-08
7.1671579e-08
9.083144e-08
9.8589063e-08
1.0137215e-07
1.0233832e-07
1.0267071e-07
1.0278514e-07
1.0281849e-07
1.0282508e-07
1.0282206e-07
1.028157e-07
1.0280825e-07
1.028006e-07
1.0279301e-07
1.0278564e-07
1.027785e-07
1.0277163e-07
1.02765e-07
1.0275864e-07
1.0275251e-07
1.0274665e-07
1.02741e-07
1.0273562e-07
1.0273045e-07
1.0272554e-07
1.0272083e-07
1.0271638e-07
1.0271212e-07
1.0270812e-07
1.0270431e-07
1.0270075e-07
1.0269738e-07
1.0269425e-07
1.0269131e-07
1.026886e-07
1.0268606e-07
1.0268372e-07
1.0268148e-07
1.0267936e-07
1.0267745e-07
1.0267634e-07
1.0267478e-07
1.0267407e-07
1.0267295e-07
1.0267259e-07
1.026719e-07
1.0267191e-07
1.0267188e-07
1.026721e-07
1.0267245e-07
1.0267296e-07
1.0267361e-07
1.0267442e-07
1.0267537e-07
1.0267646e-07
1.026777e-07
1.0267908e-07
1.026806e-07
1.0268227e-07
1.0268406e-07
1.02686e-07
1.0268805e-07
1.0269024e-07
1.0269252e-07
1.0269494e-07
1.0269744e-07
1.0270006e-07
1.0270273e-07
1.0270552e-07
1.0270833e-07
1.0271125e-07
1.0271415e-07
1.0271713e-07
1.0272004e-07
1.0272303e-07
1.0272589e-07
1.0272897e-07
1.0273235e-07
2.605422e-10
1.0365026e-08
4.4668587e-08
7.8450803e-08
9.4999948e-08
1.0096017e-07
1.0291409e-07
1.0354292e-07
1.037453e-07
1.0380659e-07
1.0382131e-07
1.0382083e-07
1.0381524e-07
1.0380808e-07
1.0380048e-07
1.0379296e-07
1.0378558e-07
1.0377847e-07
1.0377158e-07
1.0376496e-07
1.0375856e-07
1.0375244e-07
1.0374652e-07
1.0374086e-07
1.037354e-07
1.0373021e-07
1.0372519e-07
1.0372044e-07
1.0371586e-07
1.0371154e-07
1.037074e-07
1.037035e-07
1.0369977e-07
1.0369629e-07
1.0369298e-07
1.0368991e-07
1.03687e-07
1.0368432e-07
1.0368179e-07
1.0367947e-07
1.0367723e-07
1.0367513e-07
1.0367314e-07
1.0367201e-07
1.0367032e-07
1.0366957e-07
1.0366829e-07
1.0366787e-07
1.0366699e-07
1.036669e-07
1.0366649e-07
1.0366663e-07
1.036668e-07
1.0366712e-07
1.0366757e-07
1.0366817e-07
1.0366888e-07
1.0366974e-07
1.0367072e-07
1.0367184e-07
1.0367307e-07
1.0367445e-07
1.0367592e-07
1.0367754e-07
1.0367924e-07
1.0368109e-07
1.0368298e-07
1.0368503e-07
1.036871e-07
1.0368933e-07
1.0369154e-07
1.0369389e-07
1.036962e-07
1.0369864e-07
1.0370098e-07
1.0370344e-07
1.0370573e-07
1.0370814e-07
1.0371031e-07
1.0371271e-07
1.037153e-07
3.7517366e-10
1.3474883e-08
5.2399082e-08
8.5070116e-08
9.8704486e-08
1.0304456e-07
1.0433836e-07
1.0472161e-07
1.0483604e-07
1.0486435e-07
1.0486784e-07
1.0486355e-07
1.048568e-07
1.0484948e-07
1.0484207e-07
1.0483487e-07
1.0482784e-07
1.0482109e-07
1.0481454e-07
1.0480827e-07
1.0480218e-07
1.0479638e-07
1.0479073e-07
1.0478537e-07
1.0478016e-07
1.0477522e-07
1.0477043e-07
1.047659e-07
1.0476152e-07
1.047574e-07
1.0475341e-07
1.0474969e-07
1.0474609e-07
1.0474275e-07
1.0473954e-07
1.0473658e-07
1.0473374e-07
1.0473116e-07
1.0472867e-07
1.0472641e-07
1.0472421e-07
1.0472218e-07
1.0472015e-07
1.0471903e-07
1.0471725e-07
1.0471649e-07
1.0471508e-07
1.0471464e-07
1.0471358e-07
1.0471343e-07
1.0471273e-07
1.0471283e-07
1.0471275e-07
1.0471293e-07
1.0471319e-07
1.0471361e-07
1.047141e-07
1.0471475e-07
1.0471548e-07
1.0471636e-07
1.0471731e-07
1.0471843e-07
1.0471959e-07
1.0472092e-07
1.0472228e-07
1.0472381e-07
1.0472534e-07
1.0472704e-07
1.0472871e-07
1.0473055e-07
1.0473233e-07
1.0473427e-07
1.047361e-07
1.0473809e-07
1.0473991e-07
1.0474189e-07
1.0474362e-07
1.0474548e-07
1.0474703e-07
1.047488e-07
1.0475066e-07
5.6388576e-10
1.7540153e-08
6.1045605e-08
9.1337506e-08
1.0192927e-07
1.0488777e-07
1.0568446e-07
1.0590107e-07
1.0595633e-07
1.0596686e-07
1.0596455e-07
1.0595859e-07
1.0595163e-07
1.0594457e-07
1.059376e-07
1.0593087e-07
1.0592433e-07
1.0591805e-07
1.0591195e-07
1.0590612e-07
1.0590045e-07
1.0589504e-07
1.0588978e-07
1.0588478e-07
1.0587992e-07
1.0587531e-07
1.0587083e-07
1.0586659e-07
1.0586249e-07
1.0585863e-07
1.0585488e-07
1.0585138e-07
1.0584799e-07
1.0584485e-07
1.058418e-07
1.0583901e-07
1.058363e-07
1.0583384e-07
1.0583146e-07
1.0582931e-07
1.0582719e-07
1.0582527e-07
1.0582328e-07
1.0582216e-07
1.0582037e-07
1.0581962e-07
1.0581814e-07
1.0581768e-07
1.0581653e-07
1.0581632e-07
1.0581548e-07
1.0581554e-07
1.0581508e-07
1.0581522e-07
1.0581531e-07
1.0581558e-07
1.0581588e-07
1.0581634e-07
1.0581685e-07
1.0581751e-07
1.0581822e-07
1.0581908e-07
1.0581997e-07
1.0582102e-07
1.0582207e-07
1.0582329e-07
1.0582449e-07
1.0582585e-07
1.0582716e-07
1.0582863e-07
1.0583001e-07
1.0583155e-07
1.0583296e-07
1.0583451e-07
1.0583588e-07
1.0583738e-07
1.0583862e-07
1.0583998e-07
1.0584099e-07
1.0584218e-07
1.0584338e-07
8.8254398e-10
2.2899877e-08
7.0522222e-08
9.7059409e-08
1.0468981e-07
1.0654369e-07
1.0699023e-07
1.0710024e-07
1.0712216e-07
1.0712291e-07
1.0711799e-07
1.0711167e-07
1.0710506e-07
1.0709857e-07
1.0709223e-07
1.0708613e-07
1.070802e-07
1.0707452e-07
1.07069e-07
1.0706372e-07
1.0705858e-07
1.0705368e-07
1.0704891e-07
1.0704437e-07
1.0703995e-07
1.0703576e-07
1.0703168e-07
1.0702783e-07
1.0702409e-07
1.0702057e-07
1.0701714e-07
1.0701395e-07
1.0701084e-07
1.0700795e-07
1.0700515e-07
1.0700258e-07
1.0700008e-07
1.0699781e-07
1.0699559e-07
1.069936e-07
1.0699163e-07
1.0698986e-07
1.06988e-07
1.0698688e-07
1.0698518e-07
1.0698442e-07
1.0698296e-07
1.0698249e-07
1.0698131e-07
1.0698106e-07
1.0698015e-07
1.0698012e-07
1.0697947e-07
1.0697961e-07
1.0697945e-07
1.0697962e-07
1.0697976e-07
1.0698005e-07
1.0698038e-07
1.0698084e-07
1.0698132e-07
1.0698195e-07
1.0698259e-07
1.0698339e-07
1.0698416e-07
1.069851e-07
1.0698598e-07
1.0698704e-07
1.06988e-07
1.0698914e-07
1.0699015e-07
1.0699133e-07
1.0699234e-07
1.0699351e-07
1.0699446e-07
1.0699555e-07
1.0699635e-07
1.0699728e-07
1.0699781e-07
1.0699851e-07
1.0699911e-07
1.4305761e-09
3.0070637e-08
8.0601253e-08
1.0206499e-07
1.0703293e-07
1.0807075e-07
1.0829244e-07
1.0833767e-07
1.0834355e-07
1.0834023e-07
1.0833474e-07
1.0832886e-07
1.0832301e-07
1.0831732e-07
1.083118e-07
1.0830649e-07
1.0830133e-07
1.0829639e-07
1.0829158e-07
1.0828698e-07
1.082825e-07
1.0827823e-07
1.0827407e-07
1.0827011e-07
1.0826625e-07
1.0826259e-07
1.0825903e-07
1.0825566e-07
1.0825238e-07
1.0824929e-07
1.0824629e-07
1.0824348e-07
1.0824074e-07
1.082382e-07
1.0823572e-07
1.0823345e-07
1.0823123e-07
1.0822921e-07
1.0822724e-07
1.0822546e-07
1.0822371e-07
1.0822213e-07
1.0822049e-07
1.0821941e-07
1.0821787e-07
1.0821715e-07
1.0821578e-07
1.0821533e-07
1.0821418e-07
1.0821392e-07
1.08213e-07
1.0821292e-07
1.0821224e-07
1.0821233e-07
1.0821184e-07
1.0821207e-07
1.0821204e-07
1.0821219e-07
1.0821238e-07
1.0821265e-07
1.0821297e-07
1.0821337e-07
1.0821382e-07
1.0821435e-07
1.0821491e-07
1.0821556e-07
1.0821621e-07
1.0821694e-07
1.0821764e-07
1.0821843e-07
1.0821916e-07
1.0821997e-07
1.0822068e-07
1.0822146e-07
1.0822209e-07
1.0822279e-07
1.0822325e-07
1.0822379e-07
1.0822396e-07
1.0822425e-07
1.0822437e-07
2.3853948e-09
3.9904555e-08
9.0842015e-08
1.0623768e-07
1.0903395e-07
1.0952754e-07
1.0961913e-07
1.0963256e-07
1.0963128e-07
1.0962693e-07
1.09622e-07
1.0961706e-07
1.0961224e-07
1.0960759e-07
1.0960308e-07
1.0959874e-07
1.0959453e-07
1.0959048e-07
1.0958655e-07
1.0958279e-07
1.0957913e-07
1.0957563e-07
1.0957222e-07
1.0956898e-07
1.0956581e-07
1.0956281e-07
1.0955988e-07
1.0955712e-07
1.0955442e-07
1.0955188e-07
1.095494e-07
1.0954709e-07
1.0954482e-07
1.0954273e-07
1.0954067e-07
1.0953879e-07
1.0953694e-07
1.0953526e-07
1.095336e-07
1.0953212e-07
1.0953065e-07
1.0952934e-07
1.0952801e-07
1.0952701e-07
1.0952571e-07
1.0952509e-07
1.0952386e-07
1.095235e-07
1.0952243e-07
1.0952223e-07
1.0952133e-07
1.0952128e-07
1.0952056e-07
1.0952065e-07
1.0952007e-07
1.0952029e-07
1.0952e-07
1.0952015e-07
1.0952018e-07
1.0952036e-07
1.0952049e-07
1.0952076e-07
1.0952099e-07
1.0952136e-07
1.0952167e-07
1.0952214e-07
1.095225e-07
1.0952303e-07
1.0952343e-07
1.09524e-07
1.095244e-07
1.0952498e-07
1.0952534e-07
1.0952589e-07
1.0952616e-07
1.0952662e-07
1.0952674e-07
1.0952706e-07
1.0952689e-07
1.0952696e-07
1.0952667e-07
4.0513703e-09
5.3972789e-08
1.005266e-07
1.0954654e-07
1.1078948e-07
1.1097034e-07
1.1099661e-07
1.1099798e-07
1.1099507e-07
1.1099139e-07
1.109877e-07
1.1098406e-07
1.1098057e-07
1.1097717e-07
1.1097391e-07
1.1097073e-07
1.1096769e-07
1.1096473e-07
1.1096188e-07
1.1095913e-07
1.1095647e-07
1.1095392e-07
1.1095144e-07
1.1094907e-07
1.1094676e-07
1.1094457e-07
1.1094242e-07
1.1094041e-07
1.1093842e-07
1.1093657e-07
1.1093474e-07
1.1093306e-07
1.1093138e-07
1.1092985e-07
1.1092831e-07
1.1092695e-07
1.1092555e-07
1.1092434e-07
1.1092307e-07
1.1092201e-07
1.1092087e-07
1.1091995e-07
1.1091895e-07
1.1091816e-07
1.109172e-07
1.1091673e-07
1.1091572e-07
1.1091551e-07
1.109146e-07
1.109145e-07
1.109137e-07
1.1091371e-07
1.1091305e-07
1.1091315e-07
1.1091259e-07
1.1091279e-07
1.1091234e-07
1.1091258e-07
1.1091244e-07
1.1091255e-07
1.1091255e-07
1.1091271e-07
1.1091278e-07
1.10913e-07
1.1091313e-07
1.1091341e-07
1.1091358e-07
1.109139e-07
1.1091409e-07
1.1091442e-07
1.1091461e-07
1.1091494e-07
1.109151e-07
1.1091538e-07
1.1091546e-07
1.1091567e-07
1.1091562e-07
1.1091573e-07
1.1091544e-07
1.109153e-07
1.1091488e-07
6.918184e-09
7.5616718e-08
1.0862913e-07
1.1206444e-07
1.1240539e-07
1.1244416e-07
1.124474e-07
1.1244594e-07
1.1244394e-07
1.1244179e-07
1.124398e-07
1.1243776e-07
1.124359e-07
1.1243399e-07
1.1243226e-07
1.1243048e-07
1.1242887e-07
1.124272e-07
1.1242569e-07
1.1242414e-07
1.1242273e-07
1.1242128e-07
1.1241997e-07
1.1241862e-07
1.124174e-07
1.1241616e-07
1.1241502e-07
1.1241387e-07
1.1241282e-07
1.1241176e-07
1.1241078e-07
1.1240983e-07
1.1240893e-07
1.1240806e-07
1.1240723e-07
1.1240645e-07
1.1240569e-07
1.12405e-07
1.1240431e-07
1.1240371e-07
1.1240307e-07
1.1240256e-07
1.1240198e-07
1.1240155e-07
1.1240103e-07
1.1240071e-07
1.1240015e-07
1.1240003e-07
1.1239948e-07
1.1239944e-07
1.1239893e-07
1.1239897e-07
1.1239851e-07
1.1239862e-07
1.123982e-07
1.1239837e-07
1.1239801e-07
1.123982e-07
1.1239797e-07
1.1239813e-07
1.1239797e-07
1.1239813e-07
1.1239802e-07
1.1239821e-07
1.1239815e-07
1.1239836e-07
1.1239832e-07
1.1239855e-07
1.1239851e-07
1.1239874e-07
1.123987e-07
1.1239892e-07
1.1239887e-07
1.1239905e-07
1.1239896e-07
1.1239908e-07
1.1239891e-07
1.1239896e-07
1.1239867e-07
1.1239854e-07
1.1239816e-07
8.5290266e-08
8.5295244e-08
8.5294504e-08
8.5287907e-08
8.527955e-08
8.5270052e-08
8.526037e-08
8.5250567e-08
8.5240814e-08
8.5231137e-08
8.5221591e-08
8.5212167e-08
8.52029e-08
8.5193773e-08
8.5184817e-08
8.5176017e-08
8.5167404e-08
8.5158965e-08
8.5150732e-08
8.5142695e-08
8.5134884e-08
8.5127295e-08
8.5119957e-08
8.511287e-08
8.5106059e-08
8.5099532e-08
8.5093309e-08
8.5087401e-08
8.5081829e-08
8.5076605e-08
8.5071748e-08
8.506727e-08
8.5063192e-08
8.5059525e-08
8.5056287e-08
8.5053483e-08
8.5051162e-08
8.504935e-08
8.5048088e-08
8.5047384e-08
8.5047245e-08
8.5047645e-08
8.5048569e-08
8.5049984e-08
8.5051875e-08
8.505421e-08
8.5056967e-08
8.5060087e-08
8.5063491e-08
8.5067011e-08
8.5070364e-08
8.5073022e-08
8.507407e-08
8.5071901e-08
8.5063804e-08
8.5045254e-08
8.5008907e-08
8.4943046e-08
8.4829447e-08
8.464033e-08
8.4334367e-08
8.3851524e-08
8.3106974e-08
8.1984499e-08
8.0330862e-08
7.7953677e-08
7.4627448e-08
7.0114578e-08
6.4209556e-08
5.6811979e-08
4.8023524e-08
3.8240859e-08
2.8187211e-08
1.8814643e-08
1.1054729e-08
5.5009512e-09
2.1958372e-09
6.6430363e-10
1.8267758e-10
1.2151789e-10
1.5107786e-10
8.5506312e-08
8.5511683e-08
8.5510581e-08
8.5503744e-08
8.5495111e-08
8.5485548e-08
8.5475738e-08
8.5465853e-08
8.545601e-08
8.5446274e-08
8.543666e-08
8.5427191e-08
8.5417871e-08
8.5408708e-08
8.5399712e-08
8.5390885e-08
8.5382241e-08
8.5373782e-08
8.5365525e-08
8.5357474e-08
8.5349647e-08
8.5342049e-08
8.5334699e-08
8.5327608e-08
8.5320789e-08
8.5314259e-08
8.5308032e-08
8.5302123e-08
8.5296547e-08
8.5291323e-08
8.5286465e-08
8.5281987e-08
8.5277908e-08
8.5274241e-08
8.5271006e-08
8.5268207e-08
8.5265876e-08
8.526405e-08
8.5262775e-08
8.5262055e-08
8.5261903e-08
8.5262287e-08
8.5263197e-08
8.5264593e-08
8.5266467e-08
8.5268785e-08
8.527153e-08
8.5274648e-08
8.5278073e-08
8.5281656e-08
8.5285157e-08
8.5288114e-08
8.5289732e-08
8.5288605e-08
8.5282348e-08
8.5266958e-08
8.5235891e-08
8.5178648e-08
8.5078766e-08
8.4910968e-08
8.4637326e-08
8.4202249e-08
8.352637e-08
8.2499686e-08
8.0975106e-08
7.8764749e-08
7.5643294e-08
7.1365114e-08
6.5703888e-08
5.8522415e-08
4.9871128e-08
4.0092283e-08
2.9873967e-08
2.0178581e-08
1.2004561e-08
6.0474464e-09
2.4387198e-09
7.3640173e-10
1.8887493e-10
1.1198984e-10
1.3733388e-10
8.573387e-08
8.5739595e-08
8.5738115e-08
8.5730992e-08
8.5722162e-08
8.571248e-08
8.570254e-08
8.5692568e-08
8.5682639e-08
8.5672843e-08
8.5663166e-08
8.5653652e-08
8.5644283e-08
8.5635086e-08
8.5626051e-08
8.5617198e-08
8.5608525e-08
8.5600049e-08
8.5591771e-08
8.5583709e-08
8.5575867e-08
8.5568264e-08
8.5560905e-08
8.5553811e-08
8.5546988e-08
8.5540459e-08
8.5534231e-08
8.5528326e-08
8.5522754e-08
8.5517533e-08
8.5512679e-08
8.5508206e-08
8.5504132e-08
8.5500467e-08
8.5497235e-08
8.5494443e-08
8.549211e-08
8.5490272e-08
8.5488982e-08
8.5488248e-08
8.548808e-08
8.5488449e-08
8.548934e-08
8.5490718e-08
8.5492571e-08
8.549487e-08
8.5497598e-08
8.5500709e-08
8.5504144e-08
8.550778e-08
8.5511403e-08
8.5514622e-08
8.5516745e-08
8.5516555e-08
8.5511963e-08
8.5499458e-08
8.5473246e-08
8.5423981e-08
8.5336887e-08
8.5189106e-08
8.4946037e-08
8.4556501e-08
8.3946652e-08
8.3012935e-08
8.1614926e-08
7.9570179e-08
7.6654966e-08
7.2617473e-08
6.7212518e-08
6.026716e-08
5.1779408e-08
4.2032157e-08
3.1669747e-08
2.1655763e-08
1.3051709e-08
6.6609058e-09
2.7165867e-09
8.2124555e-10
1.9818296e-10
1.0370827e-10
1.2515834e-10
8.5973685e-08
8.5979687e-08
8.5977798e-08
8.5970385e-08
8.5961359e-08
8.5951533e-08
8.5941467e-08
8.5931406e-08
8.5921397e-08
8.591154e-08
8.5901805e-08
8.5892246e-08
8.5882832e-08
8.5873601e-08
8.5864532e-08
8.5855655e-08
8.5846956e-08
8.5838464e-08
8.5830168e-08
8.5822097e-08
8.5814243e-08
8.5806637e-08
8.5799273e-08
8.579218e-08
8.5785356e-08
8.5778831e-08
8.5772607e-08
8.5766707e-08
8.5761142e-08
8.5755928e-08
8.5751083e-08
8.5746615e-08
8.5742549e-08
8.5738887e-08
8.573566e-08
8.5732869e-08
8.5730545e-08
8.5728694e-08
8.5727392e-08
8.5726644e-08
8.5726463e-08
8.5726815e-08
8.572769e-08
8.5729048e-08
8.5730881e-08
8.5733158e-08
8.5735868e-08
8.5738967e-08
8.5742409e-08
8.5746082e-08
8.5749811e-08
8.5753255e-08
8.5755826e-08
8.5756469e-08
8.5753379e-08
8.5743488e-08
8.5721714e-08
8.5679784e-08
8.5604537e-08
8.547543e-08
8.5261105e-08
8.4914724e-08
8.4367995e-08
8.3523986e-08
8.2249414e-08
8.0368149e-08
7.7659488e-08
7.3867404e-08
6.8730063e-08
6.2040368e-08
5.3743323e-08
4.4057969e-08
3.3576026e-08
2.3251824e-08
1.4204232e-08
7.348934e-09
3.0343859e-09
9.2088264e-10
2.1097591e-10
9.6515515e-11
1.1417784e-10
8.6226551e-08
8.623275e-08
8.6230396e-08
8.6222716e-08
8.6213466e-08
8.6203487e-08
8.6193298e-08
8.6183147e-08
8.617306e-08
8.6163143e-08
8.6153352e-08
8.6143749e-08
8.6134292e-08
8.612503e-08
8.6115928e-08
8.610703e-08
8.6098307e-08
8.6089802e-08
8.608149e-08
8.6073413e-08
8.6065551e-08
8.6057943e-08
8.6050576e-08
8.6043487e-08
8.6036667e-08
8.6030148e-08
8.6023932e-08
8.6018041e-08
8.6012486e-08
8.6007282e-08
8.6002447e-08
8.599799e-08
8.5993932e-08
8.5990279e-08
8.5987057e-08
8.5984271e-08
8.5981953e-08
8.59801e-08
8.5978786e-08
8.5978026e-08
8.5977832e-08
8.597817e-08
8.5979028e-08
8.5980366e-08
8.5982178e-08
8.5984432e-08
8.5987122e-08
8.5990205e-08
8.5993646e-08
8.5997347e-08
8.6001163e-08
8.60048e-08
8.6007761e-08
8.6009141e-08
8.6007393e-08
8.5999858e-08
8.5982111e-08
8.594689e-08
8.5882554e-08
8.5770777e-08
8.5583335e-08
8.5277647e-08
8.4790963e-08
8.403312e-08
8.2878392e-08
8.1157814e-08
7.8655134e-08
7.511218e-08
7.025293e-08
6.3838174e-08
5.5759934e-08
4.6169387e-08
3.5596549e-08