/*--------------------------------*- C++ -*----------------------------------*\
| =========                 |                                                 |
| \\      /  F ield         | OpenFOAM: The Open Source CFD Toolbox           |
|  \\    /   O peration     | Version:  v2006                                 |
|   \\  /    A nd           | Website:  www.openfoam.com                      |
|    \\/     M anipulation  |                                                 |
\*---------------------------------------------------------------------------*/
FoamFile
{
    version     2.0;
    format      ascii;
    class       volScalarField;
    location    "5000";
    object      Cp;
}
// * * * * * * * * * * * * * * * * * * * * * * * * * * * * * * * * * * * * * //

dimensions      [0 0 0 0 0 0 0];


internalField   nonuniform List<scalar> 
102907
(
0.0051485316
0.0051490759
0.0051490409
0.0051494339
0.0051494254
0.0051496988
0.0051497156
0.0051499103
0.0051499691
0.0051501361
0.0051502533
0.0051503882
0.0051504882
0.0051505617
0.0051505899
0.0051505814
0.0051505345
0.0051504999
0.0051505111
0.00515053
0.0051505513
0.0051505952
0.0051506433
0.0051506895
0.0051507544
0.005150822
0.0051508894
0.0051509561
0.0051510263
0.0051510957
0.0051511594
0.0051512132
0.0051512536
0.005151277
0.0051512882
0.0051512802
0.0051512494
0.0051512108
0.0051511734
0.0051511407
0.0051511086
0.0051510751
0.0051510399
0.0051510054
0.0051509721
0.0051509413
0.0051509147
0.0051508922
0.0051508728
0.0051508573
0.0051508443
0.00515083
0.0051508128
0.0051507939
0.0051507754
0.0051507577
0.0051507352
0.005150702
0.0051506572
0.0051505996
0.0051505306
0.0051504559
0.0051503755
0.0051502934
0.0051502145
0.0051501361
0.0051500586
0.0051499869
0.0051499231
0.0051498623
0.005149803
0.0051497435
0.0051496799
0.0051496104
0.0051495336
0.0051494498
0.0051493597
0.0051492665
0.0051491655
0.0051490692
0.0051489522
0.0048118121
0.0048129103
0.0048129853
0.0048137595
0.0048139548
0.0048145087
0.0048147482
0.0048151858
0.0048154463
0.0048158511
0.0048161522
0.0048165331
0.0048168568
0.00481718
0.0048174563
0.0048176866
0.0048178605
0.0048179783
0.004818058
0.004818109
0.0048181625
0.0048182241
0.0048183086
0.0048184185
0.0048185519
0.0048187096
0.0048188865
0.0048190766
0.0048192747
0.0048194752
0.0048196699
0.004819853
0.0048200219
0.0048201837
0.0048203454
0.0048204995
0.0048206379
0.0048207347
0.0048207934
0.004820846
0.0048209293
0.0048210492
0.0048211904
0.0048213476
0.004821519
0.0048217093
0.0048219149
0.0048221193
0.0048223286
0.0048225251
0.0048226931
0.0048228493
0.0048229953
0.0048231005
0.0048231642
0.004823232
0.0048232733
0.0048232599
0.0048231927
0.0048231166
0.0048230818
0.0048230752
0.0048231291
0.0048232394
0.0048233858
0.00482357
0.0048237854
0.004824003
0.0048242178
0.0048244439
0.004824652
0.0048248442
0.0048250184
0.0048251993
0.0048253413
0.0048255152
0.0048256197
0.004825812
0.0048258847
0.0048261674
0.0048261655
0.0045164496
0.0045179097
0.0045181582
0.0045191588
0.004519561
0.0045202928
0.0045207284
0.0045213281
0.0045217592
0.0045222925
0.0045227317
0.0045232265
0.00452368
0.0045241617
0.0045246188
0.0045250376
0.0045254072
0.004525728
0.0045259981
0.0045262181
0.0045264064
0.0045265676
0.0045267212
0.004526877
0.0045270396
0.0045272142
0.0045273984
0.0045275915
0.0045277921
0.004527996
0.0045281998
0.0045284016
0.0045286064
0.0045288275
0.0045290691
0.0045293299
0.0045295879
0.0045298277
0.004530056
0.0045302903
0.0045305401
0.0045308112
0.0045311028
0.0045314088
0.0045317187
0.0045320312
0.0045323391
0.0045326296
0.0045328956
0.0045331249
0.0045333166
0.0045334714
0.0045335826
0.0045336584
0.0045337123
0.0045337481
0.0045337817
0.0045338358
0.0045339151
0.0045340353
0.0045342152
0.0045344463
0.0045347332
0.0045350697
0.0045354587
0.0045358384
0.0045362394
0.0045365694
0.0045369503
0.0045372144
0.0045376026
0.004537814
0.0045382434
0.0045384224
0.004538914
0.0045390655
0.0045396269
0.0045397641
0.0045404063
0.0045405762
0.0045412604
0.0042444474
0.0042461548
0.0042465244
0.0042476801
0.0042482212
0.0042490783
0.0042496421
0.0042503538
0.0042508874
0.0042514977
0.0042520034
0.004252546
0.0042530463
0.0042535755
0.004254099
0.004254635
0.0042551433
0.00425561
0.0042560298
0.0042564051
0.0042567373
0.004257026
0.0042572861
0.0042575231
0.0042577439
0.0042579565
0.0042581652
0.0042583721
0.0042585793
0.004258788
0.0042589994
0.004259217
0.0042594528
0.0042597168
0.0042600137
0.0042603514
0.004260711
0.0042610669
0.0042614195
0.0042617751
0.0042621343
0.0042624842
0.0042628305
0.0042631713
0.0042635025
0.0042638199
0.004264119
0.0042643956
0.0042646417
0.004264857
0.0042650361
0.0042651882
0.004265327
0.0042654528
0.0042655829
0.0042657357
0.0042659094
0.0042661203
0.0042663825
0.0042666851
0.0042670363
0.004267435
0.004267883
0.0042683454
0.004268805
0.0042692191
0.0042696443
0.004269996
0.0042704143
0.0042707225
0.0042711751
0.0042714669
0.0042719858
0.0042722758
0.0042728811
0.0042731758
0.0042738821
0.0042741819
0.0042750096
0.0042753186
0.0042762956
0.0039986721
0.0040005168
0.0040009683
0.0040022073
0.00400284
0.0040037659
0.0040044117
0.0040051844
0.0040057819
0.0040064345
0.0040069761
0.0040075365
0.0040080456
0.0040085697
0.0040090904
0.0040096315
0.0040101767
0.0040107283
0.00401125
0.0040117339
0.004012178
0.0040125852
0.004012962
0.0040133039
0.0040136164
0.0040139066
0.0040141805
0.0040144372
0.0040146832
0.0040149244
0.0040151644
0.0040154107
0.0040156711
0.0040159542
0.0040162747
0.0040166401
0.0040170417
0.0040174582
0.0040178657
0.0040182525
0.0040186132
0.0040189549
0.0040192791
0.0040195919
0.0040198907
0.004020171
0.0040204319
0.0040206696
0.0040208868
0.004021088
0.00402128
0.004021467
0.0040216654
0.004021885
0.004022129
0.0040224098
0.0040227303
0.0040230853
0.0040234806
0.004023917
0.0040243947
0.004024887
0.0040253683
0.0040258162
0.004026256
0.004026648
0.0040270727
0.0040274358
0.0040278927
0.0040282505
0.0040287658
0.0040291279
0.0040297185
0.0040300915
0.0040307738
0.0040311655
0.0040319593
0.0040323669
0.004033309
0.0040337102
0.0040348707
0.0037750468
0.0037769474
0.0037774494
0.0037787201
0.0037794048
0.0037803601
0.0037810503
0.0037818504
0.003782485
0.0037831658
0.0037837339
0.0037843078
0.0037848207
0.0037853299
0.0037858247
0.00378633
0.003786845
0.0037873767
0.0037879145
0.0037884542
0.003788974
0.0037894647
0.0037899244
0.0037903547
0.0037907582
0.0037911385
0.0037914963
0.0037918304
0.0037921458
0.0037924484
0.0037927432
0.0037930337
0.0037933233
0.0037936153
0.0037939305
0.0037942765
0.0037946533
0.0037950381
0.0037954095
0.0037957571
0.003796079
0.0037963798
0.0037966631
0.0037969311
0.0037971871
0.0037974312
0.0037976649
0.0037978914
0.0037981121
0.0037983382
0.0037985841
0.003798847
0.0037991391
0.0037994686
0.003799826
0.0038002154
0.0038006374
0.0038010939
0.0038015787
0.0038020608
0.0038025315
0.003802975
0.0038033991
0.0038037924
0.0038042013
0.0038045819
0.0038050246
0.003805414
0.0038059109
0.0038063119
0.003806873
0.0038072873
0.0038079247
0.0038083555
0.0038090836
0.0038095372
0.0038103782
0.0038108498
0.0038118545
0.0038123067
0.0038135765
0.0035723254
0.0035742133
0.0035747389
0.0035759974
0.0035767008
0.003577652
0.0035783548
0.0035791559
0.0035798016
0.0035804903
0.003581073
0.0035816633
0.0035821834
0.0035826884
0.0035831579
0.0035836211
0.0035840847
0.0035845572
0.0035850403
0.0035855358
0.0035860387
0.0035865456
0.003587049
0.0035875375
0.0035880046
0.0035884484
0.0035888703
0.003589272
0.0035896556
0.0035900238
0.0035903795
0.0035907169
0.0035910346
0.0035913333
0.0035916248
0.0035919277
0.0035922453
0.0035925658
0.003592877
0.0035931707
0.0035934481
0.0035937132
0.0035939712
0.0035942203
0.003594464
0.0035947066
0.003594953
0.0035952118
0.0035954817
0.0035957724
0.0035960946
0.0035964431
0.0035968191
0.0035972222
0.0035976532
0.003598105
0.0035985582
0.0035990044
0.0035994371
0.0035998478
0.0036002387
0.0036006101
0.0036009898
0.0036013572
0.0036017688
0.0036021554
0.0036026167
0.0036030195
0.0036035345
0.0036039489
0.0036045254
0.0036049559
0.003605607
0.0036060587
0.0036067986
0.0036072777
0.0036081296
0.0036086281
0.0036096493
0.0036101187
0.0036114321
0.003388752
0.0033905723
0.0033911021
0.0033923122
0.0033930107
0.0033939292
0.0033946213
0.0033953988
0.003396032
0.0033967055
0.0033972833
0.0033978757
0.0033984025
0.0033989147
0.0033993807
0.0033998228
0.0034002433
0.0034006571
0.0034010716
0.0034014927
0.003401922
0.0034023591
0.0034028031
0.0034032527
0.0034037088
0.0034041651
0.0034046186
0.0034050602
0.0034054858
0.0034058929
0.003406281
0.0034066492
0.0034069901
0.0034072979
0.0034075736
0.0034078378
0.0034081004
0.0034083647
0.0034086268
0.0034088874
0.0034091445
0.0034094031
0.003409667
0.0034099359
0.0034102084
0.0034104888
0.0034107836
0.0034111004
0.0034114339
0.003411788
0.0034121655
0.0034125668
0.003412987
0.0034134045
0.0034138138
0.0034142095
0.0034145927
0.0034149592
0.0034153133
0.0034156558
0.0034160034
0.0034163477
0.0034167266
0.0034170948
0.0034175189
0.0034179042
0.0034183679
0.0034187602
0.0034192679
0.0034196718
0.0034202391
0.0034206637
0.0034213039
0.0034217526
0.003422478
0.0034229559
0.0034237893
0.0034242865
0.0034252883
0.003425749
0.0034270528
0.0032230565
0.0032247674
0.0032252837
0.0032264194
0.0032270902
0.0032279568
0.0032286149
0.0032293506
0.0032299474
0.0032305796
0.0032311226
0.0032316852
0.0032321928
0.0032327015
0.0032331683
0.0032336112
0.0032340179
0.0032344017
0.0032347712
0.0032351309
0.0032354878
0.003235845
0.0032362058
0.0032365707
0.0032369442
0.0032373252
0.0032377131
0.0032381074
0.0032385064
0.0032389056
0.0032392967
0.0032396728
0.0032400234
0.0032403414
0.0032406215
0.0032408738
0.003241115
0.0032413559
0.0032416024
0.0032418604
0.0032421271
0.0032424038
0.0032426936
0.0032429989
0.0032433127
0.0032436367
0.0032439744
0.0032443288
0.0032447014
0.0032450892
0.0032454751
0.0032458496
0.0032462102
0.0032465558
0.0032468882
0.003247211
0.0032475317
0.0032478451
0.0032481699
0.0032484898
0.0032488383
0.0032491781
0.0032495618
0.0032499176
0.0032503309
0.0032506904
0.0032511324
0.0032514977
0.0032519841
0.0032523673
0.0032529142
0.0032533204
0.0032539346
0.0032543625
0.0032550534
0.0032555073
0.0032562988
0.0032567702
0.003257723
0.003258152
0.0032594028
0.0030740813
0.0030756503
0.0030761395
0.0030771785
0.0030778043
0.0030785989
0.0030792053
0.0030798718
0.0030804172
0.0030809887
0.0030814797
0.003081985
0.0030824405
0.0030829022
0.0030833363
0.0030837651
0.0030841694
0.0030845494
0.0030849042
0.0030852372
0.0030855538
0.0030858597
0.0030861594
0.0030864535
0.0030867462
0.0030870406
0.0030873401
0.0030876467
0.0030879623
0.0030882893
0.0030886239
0.0030889636
0.003089301
0.003089621
0.0030899152
0.0030901816
0.0030904346
0.0030906856
0.0030909444
0.0030912165
0.0030915024
0.0030917987
0.0030921057
0.003092425
0.0030927572
0.0030931004
0.0030934487
0.003093796
0.0030941368
0.0030944639
0.0030947741
0.0030950685
0.0030953546
0.0030956367
0.0030959205
0.0030962052
0.0030964997
0.0030967931
0.0030971056
0.0030974123
0.0030977494
0.0030980678
0.0030984276
0.0030987495
0.0030991298
0.0030994541
0.0030998659
0.003100204
0.0031006651
0.0031010253
0.0031015432
0.0031019218
0.0031024973
0.0031028913
0.0031035325
0.0031039478
0.00310468
0.0031051091
0.0031059908
0.0031063739
0.0031075392
0.0029405296
0.0029419319
0.0029423826
0.0029433085
0.0029438763
0.0029445859
0.0029451319
0.0029457255
0.0029462183
0.0029467313
0.002947175
0.0029476244
0.0029480271
0.0029484329
0.0029488134
0.0029491976
0.0029495704
0.0029499386
0.002950288
0.0029506172
0.0029509271
0.0029512215
0.0029515038
0.0029517724
0.00295203
0.0029522793
0.0029525252
0.0029527696
0.002953017
0.0029532741
0.0029535432
0.0029538287
0.0029541312
0.0029544425
0.0029547414
0.0029550253
0.0029552996
0.0029555712
0.0029558463
0.002956128
0.0029564179
0.0029567158
0.0029570128
0.0029573074
0.0029575989
0.002957885
0.002958164
0.0029584315
0.0029586887
0.0029589341
0.0029591752
0.0029594122
0.0029596557
0.0029599025
0.0029601606
0.0029604184
0.0029606898
0.0029609563
0.0029612432
0.0029615186
0.0029618239
0.0029621049
0.002962428
0.0029627124
0.0029630594
0.0029633529
0.002963737
0.0029640482
0.0029644785
0.0029648059
0.0029652817
0.0029656184
0.0029661417
0.0029664883
0.0029670692
0.0029674322
0.0029680934
0.0029684655
0.0029692604
0.0029695844
0.0029706403
0.0028215216
0.002822741
0.0028231452
0.0028239469
0.002824448
0.0028250646
0.0028255461
0.00282607
0.0028265137
0.0028269759
0.0028273831
0.0028277905
0.0028281615
0.0028285265
0.0028288677
0.0028292069
0.0028295319
0.0028298568
0.002830175
0.0028304895
0.0028307938
0.0028310869
0.002831368
0.0028316355
0.0028318903
0.0028321338
0.0028323694
0.0028325946
0.0028328148
0.0028330315
0.0028332526
0.0028334828
0.0028337301
0.0028339937
0.0028342712
0.0028345539
0.0028348339
0.0028351107
0.0028353853
0.0028356528
0.0028359123
0.0028361623
0.0028364019
0.0028366304
0.0028368491
0.0028370583
0.0028372607
0.0028374576
0.0028376533
0.0028378507
0.0028380536
0.0028382612
0.0028384774
0.0028386952
0.0028389236
0.002839148
0.0028393876
0.0028396178
0.0028398719
0.0028401094
0.002840381
0.0028406246
0.002840916
0.002841166
0.0028414831
0.002841743
0.002842093
0.0028423641
0.0028427481
0.0028430249
0.002843443
0.0028437233
0.0028441827
0.0028444709
0.0028449825
0.0028452833
0.002845864
0.0028461697
0.0028468652
0.0028471224
0.0028480524
0.0027165195
0.0027175499
0.0027179062
0.0027185808
0.0027190131
0.0027195365
0.0027199519
0.0027204075
0.0027207983
0.0027212093
0.0027215775
0.0027219486
0.0027222917
0.002722628
0.0027229441
0.0027232535
0.0027235446
0.0027238315
0.0027241071
0.0027243801
0.0027246471
0.0027249105
0.0027251668
0.0027254162
0.0027256559
0.0027258865
0.0027261064
0.0027263167
0.0027265171
0.0027267095
0.0027268957
0.0027270803
0.0027272676
0.0027274616
0.0027276647
0.0027278765
0.0027280929
0.0027283109
0.0027285257
0.002728736
0.0027289388
0.0027291352
0.002729323
0.0027295038
0.0027296781
0.0027298484
0.0027300173
0.0027301864
0.0027303595
0.0027305351
0.0027307179
0.0027309015
0.0027310937
0.0027312824
0.0027314824
0.0027316747
0.0027318854
0.0027320836
0.0027323096
0.0027325141
0.0027327564
0.0027329647
0.0027332239
0.0027334348
0.0027337138
0.0027339282
0.0027342305
0.0027344471
0.0027347732
0.0027349904
0.002735345
0.0027355655
0.0027359585
0.0027361861
0.0027366254
0.0027368606
0.0027373575
0.002737592
0.0027381821
0.0027383705
0.002739155
0.0026246365
0.0026254768
0.00262578
0.002626329
0.0026266891
0.0026271205
0.0026274621
0.0026278414
0.0026281614
0.0026285054
0.0026288101
0.0026291287
0.0026294193
0.0026297163
0.00262999
0.0026302636
0.0026305168
0.0026307656
0.0026309993
0.0026312281
0.0026314474
0.0026316626
0.0026318707
0.0026320738
0.0026322687
0.0026324565
0.002632635
0.0026328061
0.002632969
0.0026331257
0.0026332764
0.0026334216
0.0026335627
0.0026337008
0.0026338397
0.0026339803
0.0026341265
0.0026342757
0.0026344306
0.0026345848
0.0026347424
0.002634895
0.00263505
0.002635198
0.0026353499
0.0026354951
0.0026356474
0.002635794
0.002635951
0.0026361013
0.0026362645
0.0026364174
0.0026365861
0.0026367403
0.0026369158
0.0026370723
0.002637258
0.0026374182
0.0026376152
0.0026377765
0.0026379835
0.002638143
0.0026383601
0.0026385176
0.0026387486
0.0026389058
0.0026391543
0.0026393111
0.0026395803
0.0026397379
0.0026400333
0.0026401949
0.0026405244
0.0026406911
0.0026410589
0.0026412277
0.0026416417
0.0026418057
0.0026422902
0.00264242
0.0026430445
0.0025457242
0.0025463723
0.0025466246
0.002547046
0.0025473324
0.0025476681
0.0025479313
0.0025482201
0.0025484584
0.0025487156
0.002548937
0.0025491726
0.0025493828
0.0025496034
0.0025498046
0.0025500115
0.0025502025
0.0025503947
0.002550574
0.0025507522
0.0025509209
0.0025510878
0.0025512477
0.0025514049
0.002551555
0.0025516998
0.0025518369
0.0025519677
0.0025520928
0.0025522135
0.0025523316
0.0025524462
0.0025525594
0.0025526684
0.0025527777
0.002552883
0.0025529926
0.0025530991
0.0025532141
0.0025533246
0.0025534452
0.0025535578
0.0025536815
0.0025537934
0.0025539186
0.0025540295
0.0025541568
0.0025542674
0.0025543978
0.0025545086
0.0025546423
0.0025547528
0.00255489
0.0025550002
0.0025551424
0.0025552533
0.0025554017
0.002555512
0.0025556654
0.0025557721
0.0025559302
0.0025560327
0.0025561987
0.0025562993
0.0025564783
0.0025565781
0.0025567728
0.0025568705
0.0025570835
0.002557178
0.0025574126
0.0025575042
0.0025577642
0.0025578504
0.0025581403
0.0025582141
0.0025585396
0.0025585901
0.002558966
0.0025589748
0.0025594375
0.0024816337
0.0024821161
0.0024822978
0.0024826076
0.002482813
0.0024830652
0.0024832477
0.0024834613
0.0024836237
0.0024838078
0.0024839549
0.0024841175
0.0024842534
0.0024844009
0.0024845298
0.0024846672
0.0024847918
0.0024849221
0.0024850434
0.002485168
0.0024852858
0.0024854051
0.00248552
0.0024856359
0.0024857486
0.0024858599
0.0024859671
0.0024860707
0.0024861707
0.0024862674
0.002486363
0.0024864556
0.0024865486
0.0024866366
0.0024867261
0.0024868086
0.0024868956
0.0024869753
0.0024870633
0.0024871433
0.0024872344
0.0024873152
0.0024874089
0.0024874897
0.0024875851
0.0024876656
0.0024877627
0.002487843
0.002487942
0.0024880221
0.0024881231
0.0024882033
0.0024883068
0.0024883877
0.0024884945
0.0024885759
0.0024886857
0.0024887664
0.0024888786
0.0024889582
0.0024890748
0.0024891556
0.0024892809
0.0024893655
0.002489502
0.0024895893
0.0024897371
0.002489825
0.0024899849
0.0024900724
0.002490247
0.0024903337
0.0024905256
0.0024906101
0.0024908222
0.0024909024
0.0024911435
0.0024912123
0.0024914959
0.0024915266
0.0024918808
0.0024249053
0.0024253031
0.0024255548
0.0024258076
0.0024260377
0.0024262446
0.0024264393
0.0024266183
0.0024267838
0.0024269413
0.0024270846
0.0024272238
0.0024273498
0.002427474
0.0024275868
0.0024277
0.0024278043
0.0024279102
0.0024280093
0.0024281094
0.0024282037
0.0024282984
0.0024283901
0.0024284833
0.0024285764
0.0024286705
0.0024287649
0.0024288578
0.002428951
0.0024290408
0.0024291319
0.0024292183
0.0024293067
0.0024293886
0.0024294731
0.0024295499
0.0024296304
0.0024297021
0.0024297804
0.0024298496
0.0024299274
0.002429995
0.002430073
0.0024301389
0.0024302171
0.0024302813
0.0024303599
0.0024304222
0.0024305016
0.002430562
0.0024306424
0.0024307008
0.0024307826
0.002430839
0.0024309225
0.0024309767
0.0024310627
0.0024311147
0.0024312037
0.0024312541
0.0024313482
0.0024313985
0.0024314994
0.002431549
0.0024316555
0.0024317014
0.002431812
0.0024318526
0.0024319675
0.0024320022
0.0024321228
0.0024321506
0.0024322763
0.0024322944
0.0024324235
0.0024324306
0.0024325572
0.0024325597
0.0024326703
0.0024326665
0.0024327818
0.0023487577
0.0023488562
0.002349022
0.0023491645
0.0023493123
0.0023494518
0.0023495858
0.0023497122
0.0023498308
0.0023499419
0.002350045
0.0023501404
0.0023502279
0.0023503081
0.0023503813
0.0023504485
0.0023505101
0.0023505671
0.0023506195
0.0023506681
0.0023507108
0.0023507476
0.0023507791
0.0023508073
0.0023508331
0.0023508571
0.0023508795
0.0023509003
0.002350919
0.0023509357
0.00235095
0.0023509618
0.0023509708
0.0023509771
0.0023509801
0.00235098
0.002350977
0.0023509725
0.0023509658
0.0023509576
0.0023509471
0.0023509353
0.0023509213
0.0023509059
0.0023508881
0.0023508688
0.002350847
0.0023508234
0.0023507971
0.0023507688
0.0023507375
0.0023507041
0.0023506673
0.0023506281
0.0023505854
0.0023505387
0.0023504875
0.0023504321
0.0023503721
0.0023503077
0.0023502385
0.0023501646
0.0023500847
0.0023499981
0.0023499029
0.0023497983
0.0023496834
0.002349558
0.0023494212
0.0023492733
0.0023491128
0.0023489389
0.0023487495
0.0023485433
0.0023483198
0.0023480759
0.0023478168
0.002347535
0.0023472351
0.0023469237
0.0023465788
0.002377344
0.0023766737
0.0023762577
0.0023757841
0.0023753493
0.0023749479
0.0023745464
0.0023741905
0.0023738347
0.0023735173
0.0023732047
0.0023729214
0.0023726432
0.0023723872
0.0023721348
0.0023718983
0.0023716664
0.0023714463
0.0023712327
0.0023710275
0.002370831
0.0023706399
0.0023704589
0.0023702804
0.0023701132
0.0023699464
0.0023697918
0.0023696355
0.0023694924
0.0023693457
0.0023692129
0.0023690744
0.0023689508
0.0023688197
0.0023687042
0.0023685797
0.0023684715
0.0023683528
0.0023682512
0.0023681375
0.0023680417
0.0023679325
0.0023678418
0.0023677365
0.0023676508
0.0023675494
0.0023674685
0.0023673707
0.0023672947
0.0023672007
0.0023671299
0.0023670398
0.0023669742
0.0023668877
0.0023668273
0.0023667441
0.0023666891
0.0023666102
0.0023665623
0.0023664883
0.0023664469
0.0023663744
0.002366334
0.0023662554
0.0023662121
0.002366129
0.0023660904
0.0023660091
0.0023659813
0.0023659048
0.0023658873
0.0023658113
0.0023658028
0.0023657184
0.0023657179
0.0023656076
0.0023656087
0.0023654365
0.0023654397
0.0023652072
0.0023650783
0.0027192499
0.002719936
0.0027199223
0.0027203527
0.0027203496
0.002720669
0.0027206687
0.002720938
0.0027209428
0.0027211877
0.0027212003
0.0027214311
0.0027214538
0.0027216742
0.0027217064
0.0027219177
0.0027219579
0.0027221611
0.0027222077
0.0027224035
0.0027224555
0.0027226448
0.0027227016
0.0027228855
0.0027229464
0.0027231253
0.0027231902
0.002723365
0.0027234336
0.0027236052
0.0027236779
0.0027238469
0.0027239239
0.0027240908
0.0027241723
0.0027243379
0.002724424
0.002724589
0.0027246801
0.0027248451
0.0027249415
0.0027251075
0.0027252095
0.0027253766
0.0027254849
0.002725654
0.0027257694
0.0027259414
0.0027260649
0.002726241
0.0027263737
0.002726555
0.0027266981
0.002726886
0.0027270409
0.0027272371
0.0027274058
0.0027276126
0.0027277974
0.0027280172
0.0027282199
0.0027284546
0.002728677
0.00272893
0.0027291787
0.0027294602
0.0027297444
0.0027300635
0.0027303928
0.0027307574
0.0027311357
0.0027315395
0.0027319628
0.0027324101
0.0027328821
0.0027333819
0.0027339124
0.0027344706
0.0027350918
0.0027356344
0.0027364765
0.0014801061
0.0014817886
0.0014819298
0.0014833502
0.0014835352
0.0014847473
0.0014849416
0.0014859841
0.0014861739
0.0014870786
0.0014872585
0.0014880514
0.0014882194
0.0014889206
0.0014890774
0.0014897031
0.0014898497
0.0014904126
0.0014905502
0.0014910614
0.0014911911
0.0014916577
0.0014917801
0.001492209
0.001492325
0.0014927214
0.001492832
0.0014932004
0.0014933063
0.0014936503
0.0014937521
0.0014940748
0.0014941728
0.0014944765
0.0014945712
0.001494858
0.0014949498
0.0014952213
0.0014953104
0.0014955682
0.0014956547
0.0014959
0.0014959847
0.0014962185
0.0014963013
0.001496524
0.0014966051
0.0014968169
0.0014968963
0.0014970972
0.0014971749
0.0014973647
0.0014974404
0.0014976188
0.0014976923
0.0014978586
0.0014979294
0.0014980826
0.0014981498
0.0014982887
0.0014983512
0.0014984735
0.0014985297
0.0014986334
0.0014986826
0.0014987651
0.0014988047
0.001498862
0.0014988892
0.0014989106
0.0014989083
0.0014988905
0.001498853
0.0014987948
0.0014987201
0.0014986353
0.0014985346
0.0014984249
0.0014983015
0.0014981693
0.0014980677
0.025457001
0.025462387
0.025466668
0.025471315
0.025475755
0.025480226
0.025484625
0.025488991
0.025493307
0.025497579
0.025501804
0.025505982
0.025510113
0.025514196
0.025518231
0.025522217
0.025526152
0.025530037
0.025533871
0.025537652
0.025541381
0.025545055
0.025548675
0.025552239
0.025555746
0.025559195
0.025562586
0.025565917
0.025569187
0.025572395
0.025575541
0.025578623
0.02558164
0.025584591
0.025587476
0.025590295
0.025593049
0.025595732
0.025598346
0.02560089
0.025603363
0.025605765
0.025608095
0.025610354
0.025612541
0.025614657
0.025616701
0.025618673
0.025620574
0.025622403
0.025624162
0.025625851
0.025627469
0.025629018
0.025630498
0.025631909
0.025633251
0.025634526
0.025635733
0.025636873
0.025637947
0.025638955
0.025639897
0.025640775
0.025641587
0.025642336
0.02564302
0.025643642
0.025644201
0.025644698
0.025645134
0.025645511
0.02564583
0.025646095
0.025646305
0.025646467
0.025646601
0.025646695
0.025646755
0.02564678
0.025646786
0.02369763
0.02370242
0.023706205
0.023710312
0.023714229
0.023718168
0.023722035
0.023725867
0.023729651
0.023733391
0.023737086
0.023740735
0.02374434
0.023747898
0.023751411
0.023754877
0.023758297
0.02376167
0.023764996
0.023768274
0.023771504
0.023774685
0.023777817
0.023780901
0.023783934
0.023786917
0.02378985
0.023792732
0.023795563
0.023798343
0.02380107
0.023803745
0.023806367
0.023808937
0.023811453
0.023813916
0.023816327
0.023818686
0.023820989
0.023823238
0.023825432
0.023827571
0.023829654
0.023831682
0.023833654
0.02383557
0.02383743
0.023839234
0.023840982
0.023842673
0.023844307
0.023845885
0.023847407
0.023848872
0.02385028
0.023851632
0.023852928
0.023854166
0.023855349
0.023856476
0.023857546
0.02385856
0.023859518
0.023860421
0.023861268
0.023862059
0.023862796
0.023863476
0.023864102
0.023864673
0.023865189
0.02386565
0.023866059
0.023866414
0.023866716
0.02386697
0.02386716
0.023867306
0.023867403
0.023867447
0.023867447
0.022056321
0.022060509
0.022063787
0.022067354
0.022070743
0.022074145
0.022077478
0.022080777
0.022084028
0.022087237
0.022090402
0.022093525
0.022096606
0.022099644
0.022102639
0.022105593
0.022108504
0.022111372
0.022114199
0.022116982
0.022119723
0.022122421
0.022125076
0.022127687
0.022130255
0.02213278
0.022135261
0.022137697
0.02214009
0.022142438
0.022144741
0.022147
0.022149214
0.022151382
0.022153505
0.022155582
0.022157615
0.022159604
0.022161547
0.022163443
0.022165293
0.022167097
0.022168854
0.022170563
0.022172227
0.022173843
0.022175412
0.022176933
0.022178408
0.022179835
0.022181216
0.022182549
0.022183834
0.022185073
0.022186264
0.022187408
0.022188505
0.022189555
0.022190557
0.022191513
0.022192423
0.022193285
0.022194101
0.02219487
0.022195593
0.022196269
0.022196898
0.022197482
0.022198019
0.022198509
0.022198954
0.022199352
0.022199705
0.022200013
0.022200276
0.022200496
0.022200663
0.022200792
0.022200877
0.022200916
0.022200915
0.020519156
0.020522863
0.020525742
0.02052888
0.020531851
0.020534827
0.020537739
0.020540614
0.020543444
0.020546234
0.020548982
0.020551689
0.020554357
0.020556984
0.020559573
0.020562122
0.020564633
0.020567105
0.020569539
0.020571934
0.020574291
0.02057661
0.02057889
0.020581133
0.020583337
0.020585502
0.02058763
0.020589719
0.02059177
0.020593782
0.020595756
0.020597691
0.020599587
0.020601444
0.020603263
0.020605042
0.020606783
0.020608486
0.020610152
0.020611777
0.020613363
0.02061491
0.020616417
0.020617885
0.020619313
0.020620701
0.020622049
0.020623357
0.020624626
0.020625854
0.020627043
0.020628192
0.0206293
0.020630369
0.020631398
0.020632387
0.020633336
0.020634246
0.020635115
0.020635945
0.020636735
0.020637485
0.020638196
0.020638867
0.020639498
0.020640089
0.020640641
0.020641153
0.020641625
0.020642057
0.020642449
0.020642801
0.020643113
0.020643385
0.02064362
0.020643813
0.020643963
0.020644078
0.020644154
0.020644189
0.020644189
0.019082272
0.019085544
0.019088062
0.019090814
0.019093408
0.019096003
0.019098536
0.019101034
0.019103489
0.019105905
0.019108281
0.019110619
0.019112921
0.019115185
0.019117413
0.019119605
0.019121762
0.019123884
0.019125971
0.019128024
0.019130043
0.019132027
0.019133978
0.019135895
0.019137779
0.019139629
0.019141446
0.019143229
0.019144979
0.019146696
0.01914838
0.01915003
0.019151648
0.019153232
0.019154782
0.0191563
0.019157783
0.019159235
0.019160656
0.019162043
0.019163396
0.019164717
0.019166003
0.019167256
0.019168476
0.019169662
0.019170815
0.019171934
0.019173019
0.019174071
0.01917509
0.019176075
0.019177026
0.019177944
0.019178828
0.019179678
0.019180495
0.019181278
0.019182028
0.019182744
0.019183427
0.019184076
0.019184692
0.019185274
0.019185822
0.019186336
0.019186817
0.019187263
0.019187676
0.019188054
0.019188398
0.019188707
0.019188982
0.019189222
0.01918943
0.0191896
0.019189734
0.019189836
0.019189905
0.019189936
0.019189935
0.01773807
0.017740965
0.017743172
0.01774559
0.017747858
0.017750124
0.017752332
0.017754506
0.017756638
0.017758733
0.017760791
0.017762814
0.017764801
0.017766754
0.017768674
0.017770561
0.017772416
0.017774239
0.017776031
0.017777791
0.017779522
0.017781221
0.017782891
0.017784532
0.017786142
0.017787724
0.017789276
0.017790799
0.017792294
0.01779376
0.017795196
0.017796605
0.017797984
0.017799336
0.017800658
0.017801953
0.017803219
0.017804456
0.017805668
0.017806851
0.017808006
0.017809133
0.017810232
0.017811302
0.017812344
0.017813357
0.017814343
0.0178153
0.017816229
0.017817129
0.017818002
0.017818846
0.017819661
0.017820449
0.017821208
0.017821939
0.017822642
0.017823316
0.017823962
0.01782458
0.017825169
0.01782573
0.017826263
0.017826767
0.017827242
0.017827689
0.017828106
0.017828495
0.017828855
0.017829185
0.017829485
0.017829756
0.017829997
0.017830208
0.01783039
0.017830536
0.017830656
0.017830746
0.017830806
0.017830834
0.017830834
0.016481001
0.016483563
0.016485498
0.016487622
0.016489606
0.016491586
0.016493511
0.016495402
0.016497255
0.016499072
0.016500855
0.016502604
0.016504321
0.016506006
0.01650766
0.016509284
0.016510879
0.016512446
0.016513984
0.016515494
0.016516977
0.016518433
0.016519862
0.016521266
0.016522643
0.016523995
0.016525321
0.016526622
0.016527898
0.016529149
0.016530375
0.016531577
0.016532754
0.016533906
0.016535035
0.016536138
0.016537218
0.016538274
0.016539307
0.016540317
0.016541303
0.016542265
0.016543203
0.016544118
0.016545008
0.016545875
0.016546718
0.016547537
0.016548332
0.016549104
0.016549852
0.016550576
0.016551276
0.016551953
0.016552606
0.016553235
0.016553841
0.016554422
0.01655498
0.016555514
0.016556024
0.01655651
0.016556972
0.01655741
0.016557824
0.016558213
0.016558578
0.016558919
0.016559234
0.016559524
0.016559788
0.016560027
0.01656024
0.016560427
0.016560589
0.016560719
0.016560826
0.016560907
0.016560962
0.016560987
0.016560987
0.015305168
0.015307438
0.015309133
0.015311
0.015312736
0.015314466
0.015316144
0.015317791
0.015319401
0.015320977
0.015322522
0.015324035
0.015325518
0.015326972
0.015328398
0.015329796
0.015331168
0.015332513
0.015333833
0.015335129
0.0153364
0.015337647
0.015338871
0.015340071
0.015341249
0.015342404
0.015343537
0.015344648
0.015345737
0.015346805
0.015347851
0.015348876
0.01534988
0.015350863
0.015351825
0.015352766
0.015353687
0.015354587
0.015355467
0.015356329
0.01535717
0.015357991