/*--------------------------------*- C++ -*----------------------------------*\
| =========                 |                                                 |
| \\      /  F ield         | OpenFOAM: The Open Source CFD Toolbox           |
|  \\    /   O peration     | Version:  v2006                                 |
|   \\  /    A nd           | Website:  www.openfoam.com                      |
|    \\/     M anipulation  |                                                 |
\*---------------------------------------------------------------------------*/
FoamFile
{
    version     2.0;
    format      ascii;
    class       volScalarField;
    location    "5000";
    object      k;
}
// * * * * * * * * * * * * * * * * * * * * * * * * * * * * * * * * * * * * * //

dimensions      [0 2 -2 0 0 0 0];


internalField   nonuniform List<scalar> 
102907
(
4.968914e-10
1.0600811e-09
4.4535191e-09
9.2720906e-09
1.3822504e-08
1.733978e-08
1.9768357e-08
2.1331523e-08
2.2289927e-08
2.2855851e-08
2.3179268e-08
2.3358136e-08
2.3453251e-08
2.3500993e-08
2.3522472e-08
2.3529648e-08
2.3529254e-08
2.3525002e-08
2.3518895e-08
2.3512004e-08
2.3504885e-08
2.3497832e-08
2.349099e-08
2.3484438e-08
2.3478209e-08
2.3472327e-08
2.3466797e-08
2.3461629e-08
2.3456822e-08
2.3452383e-08
2.3448312e-08
2.3444615e-08
2.3441292e-08
2.3438345e-08
2.3435775e-08
2.3433579e-08
2.3431753e-08
2.3430286e-08
2.3429162e-08
2.3428364e-08
2.3427895e-08
2.3427945e-08
2.3428618e-08
2.3429826e-08
2.3431491e-08
2.343356e-08
2.3436015e-08
2.3438836e-08
2.3442022e-08
2.3445563e-08
2.3449462e-08
2.3453716e-08
2.3458328e-08
2.3463295e-08
2.3468624e-08
2.3474309e-08
2.348036e-08
2.3486772e-08
2.3493554e-08
2.3500704e-08
2.3508232e-08
2.3516136e-08
2.3524429e-08
2.353311e-08
2.3542196e-08
2.3551689e-08
2.356161e-08
2.3571963e-08
2.3582775e-08
2.3594055e-08
2.3605836e-08
2.3618132e-08
2.3630985e-08
2.3644419e-08
2.3658488e-08
2.3673231e-08
2.3688726e-08
2.3705044e-08
2.3722315e-08
2.3740698e-08
2.3760469e-08
4.8320007e-10
1.2891961e-09
5.2547876e-09
1.0532844e-08
1.5251983e-08
1.8731735e-08
2.1037283e-08
2.2467123e-08
2.3314012e-08
2.3797767e-08
2.4065168e-08
2.4207814e-08
2.4280361e-08
2.431441e-08
2.4327695e-08
2.4329947e-08
2.4326566e-08
2.4320441e-08
2.4313093e-08
2.4305308e-08
2.4297494e-08
2.4289851e-08
2.4282484e-08
2.4275443e-08
2.4268753e-08
2.4262425e-08
2.4256466e-08
2.4250878e-08
2.4245665e-08
2.4240828e-08
2.423637e-08
2.4232292e-08
2.4228598e-08
2.4225287e-08
2.4222362e-08
2.4219815e-08
2.4217649e-08
2.4215843e-08
2.4214387e-08
2.4213246e-08
2.4212417e-08
2.4212019e-08
2.4212438e-08
2.4213357e-08
2.4214734e-08
2.4216506e-08
2.421867e-08
2.4221193e-08
2.4224086e-08
2.4227329e-08
2.4230935e-08
2.4234889e-08
2.4239207e-08
2.4243873e-08
2.4248904e-08
2.4254285e-08
2.4260035e-08
2.4266137e-08
2.4272612e-08
2.4279443e-08
2.4286655e-08
2.4294229e-08
2.4302192e-08
2.4310528e-08
2.4319264e-08
2.432839e-08
2.4337934e-08
2.434789e-08
2.435829e-08
2.4369132e-08
2.4380454e-08
2.4392259e-08
2.4404592e-08
2.4417463e-08
2.4430929e-08
2.4445013e-08
2.4459794e-08
2.4475328e-08
2.4491742e-08
2.4509189e-08
2.452795e-08
4.7711725e-10
1.5755441e-09
6.1851979e-09
1.1922191e-08
1.6769803e-08
2.0174949e-08
2.2337073e-08
2.3627252e-08
2.43643e-08
2.477076e-08
2.4987433e-08
2.5098317e-08
2.5151615e-08
2.5174258e-08
2.5180838e-08
2.5179068e-08
2.517325e-08
2.5165574e-08
2.5157167e-08
2.5148589e-08
2.5140131e-08
2.5131924e-08
2.5124046e-08
2.511652e-08
2.510937e-08
2.5102593e-08
2.5096202e-08
2.509019e-08
2.5084567e-08
2.5079326e-08
2.5074477e-08
2.5070013e-08
2.5065946e-08
2.5062264e-08
2.505898e-08
2.5056078e-08
2.5053565e-08
2.5051415e-08
2.5049621e-08
2.5048138e-08
2.5046949e-08
2.5046033e-08
2.5046213e-08
2.5046857e-08
2.5047937e-08
2.5049404e-08
2.505127e-08
2.5053488e-08
2.5056078e-08
2.5059015e-08
2.5062318e-08
2.5065966e-08
2.5069978e-08
2.5074335e-08
2.5079057e-08
2.5084125e-08
2.508956e-08
2.5095343e-08
2.5101497e-08
2.5108002e-08
2.5114881e-08
2.5122116e-08
2.5129732e-08
2.5137712e-08
2.5146082e-08
2.515483e-08
2.516398e-08
2.5173527e-08
2.5183498e-08
2.519389e-08
2.5204736e-08
2.5216036e-08
2.522783e-08
2.5240123e-08
2.5252966e-08
2.5266376e-08
2.5280422e-08
2.5295154e-08
2.5310687e-08
2.5327181e-08
2.5344916e-08
4.8109678e-10
1.9333099e-09
7.261599e-09
1.3445771e-08
1.8374232e-08
2.166704e-08
2.3667753e-08
2.4814615e-08
2.5445351e-08
2.5780324e-08
2.5951833e-08
2.6035345e-08
2.6072497e-08
2.6085801e-08
2.6086976e-08
2.6081933e-08
2.6074138e-08
2.6065176e-08
2.6055856e-08
2.6046563e-08
2.6037502e-08
2.6028753e-08
2.6020372e-08
2.6012365e-08
2.6004754e-08
2.599753e-08
2.5990705e-08
2.5984268e-08
2.5978233e-08
2.5972586e-08
2.5967343e-08
2.5962491e-08
2.5958045e-08
2.595399e-08
2.5950341e-08
2.594708e-08
2.5944215e-08
2.5941719e-08
2.5939583e-08
2.5937759e-08
2.5936216e-08
2.5934882e-08
2.5934547e-08
2.5934992e-08
2.5935829e-08
2.5936981e-08
2.5938544e-08
2.5940448e-08
2.5942729e-08
2.5945353e-08
2.5948344e-08
2.5951676e-08
2.5955373e-08
2.5959412e-08
2.5963814e-08
2.5968559e-08
2.5973668e-08
2.5979122e-08
2.598494e-08
2.5991107e-08
2.599764e-08
2.6004525e-08
2.601178e-08
2.6019392e-08
2.6027381e-08
2.6035737e-08
2.604448e-08
2.6053603e-08
2.606313e-08
2.6073056e-08
2.6083409e-08
2.6094188e-08
2.6105425e-08
2.6117123e-08
2.6129324e-08
2.614204e-08
2.6155331e-08
2.616924e-08
2.6183872e-08
2.6199392e-08
2.6216082e-08
4.9536995e-10
2.3800791e-09
8.5020698e-09
1.5108254e-08
2.0062962e-08
2.3206075e-08
2.5030423e-08
2.6033128e-08
2.656281e-08
2.6832839e-08
2.6964855e-08
2.7025204e-08
2.7049042e-08
2.7054973e-08
2.7051591e-08
2.7044007e-08
2.7034624e-08
2.7024589e-08
2.701447e-08
2.7004526e-08
2.6994893e-08
2.6985621e-08
2.6976746e-08
2.6968266e-08
2.6960197e-08
2.6952527e-08
2.6945269e-08
2.6938409e-08
2.6931959e-08
2.6925908e-08
2.6920269e-08
2.6915029e-08
2.6910202e-08
2.6905775e-08
2.6901758e-08
2.6898137e-08
2.6894916e-08
2.6892072e-08
2.6889592e-08
2.6887428e-08
2.6885543e-08
2.6883866e-08
2.6882895e-08
2.6883075e-08
2.6883638e-08
2.6884555e-08
2.6885825e-08
2.6887401e-08
2.688937e-08
2.6891671e-08
2.6894342e-08
2.6897351e-08
2.6900722e-08
2.6904434e-08
2.6908505e-08
2.6912917e-08
2.6917687e-08
2.6922801e-08
2.6928273e-08
2.6934088e-08
2.6940263e-08
2.6946784e-08
2.6953665e-08
2.6960895e-08
2.696849e-08
2.6976439e-08
2.6984761e-08
2.6993444e-08
2.7002511e-08
2.7011954e-08
2.7021798e-08
2.7032036e-08
2.70427e-08
2.7053783e-08
2.7065325e-08
2.7077326e-08
2.7089842e-08
2.7102906e-08
2.7116616e-08
2.7131136e-08
2.7146767e-08
5.2151475e-10
2.9377845e-09
9.9256053e-09
1.6912952e-08
2.1833074e-08
2.479071e-08
2.6427371e-08
2.7287972e-08
2.7723419e-08
2.7935571e-08
2.8033726e-08
2.8074858e-08
2.808788e-08
2.808804e-08
2.8081067e-08
2.8071438e-08
2.8060764e-08
2.8049822e-08
2.8038995e-08
2.8028449e-08
2.8018276e-08
2.8008497e-08
2.799914e-08
2.7990194e-08
2.7981674e-08
2.7973563e-08
2.7965877e-08
2.7958596e-08
2.7951738e-08
2.7945283e-08
2.7939252e-08
2.7933624e-08
2.792842e-08
2.7923618e-08
2.7919237e-08
2.7915253e-08
2.791168e-08
2.7908484e-08
2.7905661e-08
2.7903155e-08
2.7900932e-08
2.789891e-08
2.7897475e-08
2.7897185e-08
2.7897437e-08
2.7898056e-08
2.7899049e-08
2.7900367e-08
2.7902031e-08
2.7903994e-08
2.7906345e-08
2.7909017e-08
2.7912057e-08
2.791543e-08
2.7919161e-08
2.7923229e-08
2.792765e-08
2.7932411e-08
2.7937525e-08
2.7942977e-08
2.7948782e-08
2.7954924e-08
2.7961419e-08
2.7968251e-08
2.7975439e-08
2.7982966e-08
2.799085e-08
2.7999076e-08
2.8007668e-08
2.801661e-08
2.8025927e-08
2.8035608e-08
2.8045678e-08
2.8056128e-08
2.8066989e-08
2.8078256e-08
2.8089975e-08
2.8102173e-08
2.8114936e-08
2.8128435e-08
2.8142987e-08
5.6154434e-10
3.6335426e-09
1.1551753e-08
1.8861617e-08
2.3681284e-08
2.6420533e-08
2.7862348e-08
2.8585759e-08
2.8935105e-08
2.9096739e-08
2.916647e-08
2.919201e-08
2.91969e-08
2.9191728e-08
2.9182268e-08
2.9171086e-08
2.915937e-08
2.9147653e-08
2.9136193e-08
2.912509e-08
2.9114404e-08
2.9104139e-08
2.9094314e-08
2.9084915e-08
2.9075954e-08
2.9067413e-08
2.9059307e-08
2.9051614e-08
2.9044353e-08
2.9037504e-08
2.9031085e-08
2.9025076e-08
2.9019498e-08
2.9014328e-08
2.9009585e-08
2.9005243e-08
2.9001318e-08
2.8997774e-08
2.899461e-08
2.8991764e-08
2.8989204e-08
2.8986842e-08
2.8985077e-08
2.8984248e-08
2.8984072e-08
2.8984391e-08
2.8985077e-08
2.8986085e-08
2.8987465e-08
2.8989154e-08
2.8991192e-08
2.8993511e-08
2.8996218e-08
2.899924e-08
2.9002623e-08
2.9006336e-08
2.9010399e-08
2.9014794e-08
2.9019539e-08
2.9024613e-08
2.9030037e-08
2.9035787e-08
2.9041882e-08
2.9048302e-08
2.9055067e-08
2.9062155e-08
2.9069585e-08
2.9077339e-08
2.9085437e-08
2.9093861e-08
2.9102634e-08
2.9111737e-08
2.9121197e-08
2.9130993e-08
2.9141153e-08
2.9151664e-08
2.9162566e-08
2.9173873e-08
2.9185668e-08
2.9198121e-08
2.9211581e-08
6.1863927e-10
4.5006732e-09
1.3400042e-08
2.0954205e-08
2.5604197e-08
2.8096419e-08
2.9340805e-08
2.9934648e-08
3.0207045e-08
3.032558e-08
3.0372007e-08
3.0385115e-08
3.0383596e-08
3.0374679e-08
3.036317e-08
3.0350735e-08
3.0338154e-08
3.0325768e-08
3.0313739e-08
3.0302123e-08
3.0290953e-08
3.0280226e-08
3.0269954e-08
3.0260121e-08
3.0250736e-08
3.0241781e-08
3.0233268e-08
3.0225179e-08
3.0217527e-08
3.0210295e-08
3.0203499e-08
3.0197121e-08
3.0191176e-08
3.0185647e-08
3.0180549e-08
3.0175857e-08
3.0171587e-08
3.0167702e-08
3.01642e-08
3.0161021e-08
3.0158127e-08
3.0155431e-08
3.0153343e-08
3.0152156e-08
3.0151373e-08
3.0151363e-08
3.0151723e-08
3.0152413e-08
3.0153474e-08
3.0154847e-08
3.015658e-08
3.0158617e-08
3.0160998e-08
3.0163655e-08
3.0166684e-08
3.0170034e-08
3.0173724e-08
3.0177747e-08
3.018211e-08
3.0186794e-08
3.0191823e-08
3.0197168e-08
3.0202847e-08
3.020884e-08
3.0215166e-08
3.02218e-08
3.0228761e-08
3.0236024e-08
3.0243612e-08
3.0251499e-08
3.0259709e-08
3.0268216e-08
3.0277044e-08
3.0286167e-08
3.0295607e-08
3.0305341e-08
3.0315403e-08
3.0325798e-08
3.0336602e-08
3.0347986e-08
3.0360339e-08
6.9777795e-10
5.579807e-09
1.5489263e-08
2.3188731e-08
2.7598721e-08
2.9820957e-08
3.0870171e-08
3.1344498e-08
3.1549771e-08
3.163245e-08
3.1660271e-08
3.1664186e-08
3.1657019e-08
3.164558e-08
3.1632575e-08
3.161917e-08
3.1605882e-08
3.159292e-08
3.1580383e-08
3.1568298e-08
3.1556681e-08
3.1545524e-08
3.1534833e-08
3.1524592e-08
3.1514806e-08
3.1505461e-08
3.1496563e-08
3.1488099e-08
3.1480075e-08
3.1472481e-08
3.1465324e-08
3.1458592e-08
3.1452297e-08
3.1446423e-08
3.1440981e-08
3.1435953e-08
3.1431346e-08
3.1427132e-08
3.1423301e-08
3.1419799e-08
3.1416579e-08
3.1413561e-08
3.1411152e-08
3.1409623e-08
3.1408473e-08
3.1407844e-08
3.1407885e-08
3.140826e-08
3.1408999e-08
3.1410046e-08
3.141145e-08
3.1413155e-08
3.1415211e-08
3.1417563e-08
3.1420258e-08
3.1423234e-08
3.1426541e-08
3.1430181e-08
3.1434153e-08
3.1438433e-08
3.1443055e-08
3.1447981e-08
3.145323e-08
3.145878e-08
3.1464653e-08
3.1470817e-08
3.1477291e-08
3.1484047e-08
3.1491107e-08
3.1498439e-08
3.1506067e-08
3.1513958e-08
3.1522136e-08
3.1530564e-08
3.1539264e-08
3.1548199e-08
3.1557403e-08
3.1566864e-08
3.1576656e-08
3.1586948e-08
3.1598186e-08
8.0670578e-10
6.9199336e-09
1.7836457e-08
2.5561211e-08
2.9662572e-08
3.1598912e-08
3.2460104e-08
3.2826993e-08
3.2975271e-08
3.3028947e-08
3.3042466e-08
3.303904e-08
3.3028144e-08
3.3014752e-08
3.3000609e-08
3.2986444e-08
3.2972578e-08
3.2959126e-08
3.2946146e-08
3.2933642e-08
3.2921625e-08
3.2910078e-08
3.2899007e-08
3.2888394e-08
3.2878244e-08
3.286854e-08
3.285929e-08
3.2850479e-08
3.2842114e-08
3.2834181e-08
3.2826691e-08
3.2819629e-08
3.2813006e-08
3.2806807e-08
3.2801043e-08
3.2795695e-08
3.279077e-08
3.278624e-08
3.2782097e-08
3.2778285e-08
3.2774755e-08
3.2771429e-08
3.276871e-08
3.2766843e-08
3.2765349e-08
3.2764333e-08
3.2763774e-08
3.2763849e-08
3.2764266e-08
3.2764991e-08
3.2766062e-08
3.276743e-08
3.276914e-08
3.2771143e-08
3.2773486e-08
3.2776118e-08
3.2779086e-08
3.2782337e-08
3.2785909e-08
3.278977e-08
3.2793975e-08
3.2798468e-08
3.2803274e-08
3.2808366e-08
3.281377e-08
3.2819447e-08
3.2825419e-08
3.283165e-08
3.2838163e-08
3.2844922e-08
3.285195e-08
3.2859206e-08
3.2866714e-08
3.2874428e-08
3.288237e-08
3.2890485e-08
3.289881e-08
3.2907317e-08
3.2916078e-08
3.2925259e-08
3.2935379e-08
9.5808855e-10
8.5794119e-09
2.0455676e-08
2.8065774e-08
3.1794945e-08
3.3437736e-08
3.4122759e-08
3.43958e-08
3.4497124e-08
3.452807e-08
3.4531167e-08
3.4521901e-08
3.4508521e-08
3.449378e-08
3.4478819e-08
3.4464081e-08
3.4449759e-08
3.4435906e-08
3.4422556e-08
3.4409697e-08
3.4397338e-08
3.4385456e-08
3.4374057e-08
3.436312e-08
3.4352653e-08
3.4342636e-08
3.4333078e-08
3.432396e-08
3.4315293e-08
3.4307061e-08
3.4299273e-08
3.4291914e-08
3.4284995e-08
3.4278502e-08
3.4272442e-08
3.42668e-08
3.4261581e-08
3.425676e-08
3.4252325e-08
3.4248225e-08
3.4244408e-08
3.4240795e-08
3.4237781e-08
3.4235588e-08
3.4233762e-08
3.4232407e-08
3.4231421e-08
3.423097e-08
3.4231068e-08
3.4231476e-08
3.4232219e-08
3.423325e-08
3.4234615e-08
3.4236263e-08
3.4238243e-08
3.4240502e-08
3.4243092e-08
3.4245958e-08
3.4249152e-08
3.4252617e-08
3.4256403e-08
3.426045e-08
3.4264799e-08
3.4269416e-08
3.4274339e-08
3.4279513e-08
3.4284967e-08
3.4290655e-08
3.4296606e-08
3.4302772e-08
3.4309181e-08
3.4315783e-08
3.4322603e-08
3.4329584e-08
3.433675e-08
3.4344026e-08
3.4351457e-08
3.4358991e-08
3.4366707e-08
3.4374759e-08
3.4383769e-08
1.1728021e-09
1.0626608e-08
2.3356432e-08
3.0695001e-08
3.3997334e-08
3.5348105e-08
3.5873051e-08
3.6066725e-08
3.6130698e-08
3.6144913e-08
3.6139587e-08
3.6126792e-08
3.6111698e-08
3.6096044e-08
3.6080521e-08
3.6065379e-08
3.6050723e-08
3.6036571e-08
3.6022938e-08
3.6009807e-08
3.599718e-08
3.5985035e-08
3.5973377e-08
3.5962185e-08
3.5951464e-08
3.5941195e-08
3.5931385e-08
3.5922018e-08
3.5913102e-08
3.5904621e-08
3.5896583e-08
3.5888974e-08
3.5881804e-08
3.5875056e-08
3.5868742e-08
3.5862842e-08
3.5857364e-08
3.5852282e-08
3.5847589e-08
3.5843229e-08
3.5839156e-08
3.5835286e-08
3.5831998e-08
3.5829497e-08
3.5827357e-08
3.5825685e-08
3.5824364e-08
3.5823485e-08
3.5823066e-08
3.5823173e-08
3.5823598e-08
3.5824298e-08
3.5825324e-08
3.5826616e-08
3.5828236e-08
3.5830117e-08
3.5832325e-08
3.5834791e-08
3.5837581e-08
3.5840622e-08
3.5843982e-08
3.5847585e-08
3.5851496e-08
3.5855636e-08
3.5860072e-08
3.5864722e-08
3.5869649e-08
3.587477e-08
3.588015e-08
3.5885699e-08
3.589148e-08
3.5897402e-08
3.5903524e-08
3.5909748e-08
3.5916129e-08
3.5922563e-08
3.5929099e-08
3.5935644e-08
3.594229e-08
3.5949172e-08
3.5957063e-08
1.4860808e-09
1.3139799e-08
2.6541912e-08
3.3440603e-08
3.6274529e-08
3.7344465e-08
3.772891e-08
3.7857925e-08
3.7893328e-08
3.7895618e-08
3.788441e-08
3.7869337e-08
3.7853187e-08
3.7836989e-08
3.7821139e-08
3.7805763e-08
3.7790911e-08
3.777658e-08
3.7762776e-08
3.7749476e-08
3.7736681e-08
3.7724369e-08
3.7712544e-08
3.7701183e-08
3.7690292e-08
3.7679852e-08
3.766987e-08
3.7660327e-08
3.7651234e-08
3.764257e-08
3.763435e-08
3.7626551e-08
3.7619189e-08
3.7612243e-08
3.7605727e-08
3.7599619e-08
3.7593931e-08
3.7588632e-08
3.7583722e-08
3.7579145e-08
3.7574857e-08
3.7570772e-08
3.7567241e-08
3.7564459e-08
3.756203e-08
3.7560064e-08
3.7558436e-08
3.7557235e-08
3.7556373e-08
3.755602e-08
3.7556132e-08
3.7556515e-08
3.755721e-08
3.7558156e-08
3.7559419e-08
3.7560926e-08
3.7562752e-08
3.7564817e-08
3.7567197e-08
3.7569812e-08
3.7572735e-08
3.7575881e-08
3.7579326e-08
3.758298e-08
3.7586915e-08
3.759104e-08
3.7595428e-08
3.7599982e-08
3.7604773e-08
3.7609703e-08
3.7614839e-08
3.7620078e-08
3.7625484e-08
3.7630948e-08
3.7636524e-08
3.76421e-08
3.7647719e-08
3.7653273e-08
3.7658841e-08
3.7664541e-08
3.7671258e-08
1.9581281e-09
1.6205655e-08
3.0007003e-08
3.6294536e-08
3.8635757e-08
3.9445594e-08
3.9711564e-08
3.9790193e-08
3.980546e-08
3.9798393e-08
3.978405e-08
3.9767691e-08
3.9751017e-08
3.9734601e-08
3.9718657e-08
3.9703231e-08
3.9688347e-08
3.9673987e-08
3.9660154e-08
3.9646819e-08
3.9633988e-08
3.9621633e-08
3.9609761e-08
3.9598346e-08
3.9587398e-08
3.9576892e-08
3.9566841e-08
3.955722e-08
3.9548045e-08
3.9539289e-08
3.9530972e-08
3.9523066e-08
3.9515592e-08
3.9508522e-08
3.9501876e-08
3.9495627e-08
3.9489792e-08
3.9484337e-08
3.9479268e-08
3.9474528e-08
3.947008e-08
3.9465838e-08
3.9462104e-08
3.9459084e-08
3.94564e-08
3.9454174e-08
3.9452269e-08
3.9450785e-08
3.9449609e-08
3.9448843e-08
3.9448485e-08
3.944858e-08
3.9448961e-08
3.9449573e-08
3.9450492e-08
3.9451631e-08
3.9453082e-08
3.9454746e-08
3.9456721e-08
3.9458904e-08
3.9461391e-08
3.9464073e-08
3.9467048e-08
3.9470203e-08
3.9473633e-08
3.947722e-08
3.948106e-08
3.9485031e-08
3.9489227e-08
3.949352e-08
3.9498003e-08
3.9502543e-08
3.9507227e-08
3.9511916e-08
3.9516686e-08
3.9521393e-08
3.95261e-08
3.9530663e-08
3.9535164e-08
3.9539677e-08
3.9545183e-08
2.6926306e-09
1.9915209e-08
3.3736388e-08
3.9250714e-08
4.1095975e-08
4.1675143e-08
4.1845855e-08
4.1887223e-08
4.1888757e-08
4.1876045e-08
4.1859907e-08
4.1843013e-08
4.1826267e-08
4.180995e-08
4.1794161e-08
4.1778906e-08
4.1764193e-08
4.1749995e-08
4.1736315e-08
4.1723122e-08
4.1710423e-08
4.1698187e-08
4.1686425e-08
4.1675107e-08
4.1664248e-08
4.1653816e-08
4.1643831e-08
4.1634261e-08
4.1625128e-08
4.1616399e-08
4.16081e-08
4.1600195e-08
4.1592713e-08
4.1585617e-08
4.1578938e-08
4.1572636e-08
4.1566741e-08
4.1561208e-08
4.155606e-08
4.1551228e-08
4.1546695e-08
4.1542367e-08
4.1538495e-08
4.1535286e-08
4.1532401e-08
4.152996e-08
4.1527825e-08
4.1526096e-08
4.1524655e-08
4.1523599e-08
4.1522838e-08
4.1522515e-08
4.1522602e-08
4.1522899e-08
4.1523497e-08
4.1524278e-08
4.1525372e-08
4.1526638e-08
4.152822e-08
4.1529968e-08
4.1532027e-08
4.1534238e-08
4.1536748e-08
4.1539393e-08
4.1542319e-08
4.1545355e-08
4.1548646e-08
4.155202e-08
4.1555618e-08
4.1559261e-08
4.1563088e-08
4.1566918e-08
4.1570878e-08
4.1574786e-08
4.1578752e-08
4.1582593e-08
4.15864e-08
4.1589987e-08
4.1593445e-08
4.1596792e-08
4.1601059e-08
3.8684559e-09
2.4355568e-08
3.7703065e-08
4.2307388e-08
4.367723e-08
4.406216e-08
4.4160668e-08
4.4177109e-08
4.4168707e-08
4.4153596e-08
4.413691e-08
4.4120145e-08
4.4103766e-08
4.4087885e-08
4.4072549e-08
4.4057736e-08
4.4043451e-08
4.402966e-08
4.4016371e-08
4.4003547e-08
4.3991201e-08
4.3979295e-08
4.3967849e-08
4.3956825e-08
4.3946244e-08
4.3936069e-08
4.3926327e-08
4.3916976e-08
4.3908049e-08
4.3899502e-08
4.3891371e-08
4.388361e-08
4.3876258e-08
4.3869268e-08
4.386268e-08
4.3856444e-08
4.3850603e-08
4.38451e-08
4.3839973e-08
4.3835145e-08
4.3830623e-08
4.3826305e-08
4.3822382e-08
4.3819055e-08
4.3816044e-08
4.3813449e-08
4.3811147e-08
4.3809227e-08
4.3807578e-08
4.3806288e-08
4.3805268e-08
4.3804595e-08
4.3804247e-08
4.3804277e-08
4.380458e-08
4.380503e-08
4.3805786e-08
4.3806672e-08
4.3807876e-08
4.38092e-08
4.3810837e-08
4.3812584e-08
4.3814631e-08
4.3816771e-08
4.3819189e-08
4.3821676e-08
4.3824413e-08
4.382719e-08
4.3830182e-08
4.3833178e-08
4.3836343e-08
4.3839468e-08
4.3842702e-08
4.384584e-08
4.384901e-08
4.3852005e-08
4.3854932e-08
4.3857581e-08
4.3860038e-08
4.386227e-08
4.3865297e-08
5.7929824e-09
2.9594839e-08
4.1868086e-08
4.54704e-08
4.6410081e-08
4.6641655e-08
4.6689358e-08
4.6690128e-08
4.6676877e-08
4.6660909e-08
4.6644579e-08
4.6628535e-08
4.661298e-08
4.6597932e-08
4.6583414e-08
4.6569386e-08
4.6555862e-08
4.6542795e-08
4.6530204e-08
4.6518045e-08
4.6506338e-08
4.6495039e-08
4.6484176e-08
4.6473702e-08
4.6463648e-08
4.6453969e-08
4.6444698e-08
4.6435789e-08
4.642728e-08
4.6419121e-08
4.6411353e-08
4.6403926e-08
4.6396883e-08
4.6390173e-08
4.638384e-08
4.637783e-08
4.6372191e-08
4.6366861e-08
4.6361889e-08
4.6357196e-08
4.6352804e-08
4.6348623e-08
4.6344763e-08
4.6341422e-08
4.6338378e-08
4.633572e-08
4.6333334e-08
4.6331302e-08
4.6329515e-08
4.6328061e-08
4.6326848e-08
4.632595e-08
4.6325291e-08
4.6324956e-08
4.6324974e-08
4.6325148e-08
4.6325587e-08
4.6326132e-08
4.6326972e-08
4.6327901e-08
4.6329127e-08
4.6330429e-08
4.6332019e-08
4.6333667e-08
4.6335581e-08
4.6337529e-08
4.6339713e-08
4.6341902e-08
4.6344291e-08
4.6346648e-08
4.6349156e-08
4.6351589e-08
4.6354111e-08
4.6356499e-08
4.6358897e-08
4.6361081e-08
4.6363171e-08
4.6364941e-08
4.6366473e-08
4.6367674e-08
4.6369504e-08
8.9933485e-09
3.5656544e-08
4.6182478e-08
4.8757145e-08
4.9334876e-08
4.9455223e-08
4.9471513e-08
4.946271e-08
4.9448408e-08
4.9433139e-08
4.9418029e-08
4.9403337e-08
4.9389138e-08
4.9375415e-08
4.9362174e-08
4.934938e-08
4.9337039e-08
4.9325114e-08
4.9313618e-08
4.9302511e-08
4.9291813e-08
4.9281484e-08
4.9271548e-08
4.9261962e-08
4.9252757e-08
4.9243887e-08
4.9235388e-08
4.9227211e-08
4.9219398e-08
4.9211895e-08
4.9204749e-08
4.9197902e-08
4.9191407e-08
4.9185202e-08
4.9179344e-08
4.9173765e-08
4.9168529e-08
4.9163559e-08
4.9158923e-08
4.915453e-08
4.9150432e-08
4.914654e-08
4.9142914e-08
4.9139688e-08
4.9136748e-08
4.9134141e-08
4.9131792e-08
4.9129747e-08
4.9127928e-08
4.9126395e-08
4.9125084e-08
4.9124042e-08
4.9123215e-08
4.9122642e-08
4.9122293e-08
4.9122249e-08
4.9122412e-08
4.9122658e-08
4.9123175e-08
4.912374e-08
4.9124588e-08
4.9125469e-08
4.9126627e-08
4.9127802e-08
4.9129232e-08
4.9130657e-08
4.9132305e-08
4.9133922e-08
4.9135723e-08
4.913746e-08
4.9139333e-08
4.9141098e-08
4.9142941e-08
4.9144616e-08
4.9146292e-08
4.9147721e-08
4.914905e-08
4.9150031e-08
4.9150754e-08
4.9151061e-08
4.9151794e-08
1.4376991e-08
4.2479088e-08
5.0593547e-08
5.2201461e-08
5.2503036e-08
5.2551685e-08
5.255117e-08
5.2539378e-08
5.2525989e-08
5.2512584e-08
5.249954e-08
5.2486914e-08
5.2474728e-08
5.246295e-08
5.2451587e-08
5.2440602e-08
5.2430004e-08
5.2419758e-08
5.2409877e-08
5.2400327e-08
5.2391125e-08
5.2382236e-08
5.2373681e-08
5.2365423e-08
5.2357489e-08
5.2349839e-08
5.2342503e-08
5.2335442e-08
5.2328687e-08
5.2322196e-08
5.2316006e-08
5.2310071e-08
5.2304431e-08
5.2299037e-08
5.2293934e-08
5.2289069e-08
5.228449e-08
5.2280139e-08
5.2276068e-08
5.2272207e-08
5.2268602e-08
5.2265192e-08
5.2262032e-08
5.2259109e-08
5.225644e-08
5.2254054e-08
5.225189e-08
5.2249985e-08
5.2248262e-08
5.2246784e-08
5.2245486e-08
5.2244417e-08
5.2243521e-08
5.2242838e-08
5.2242325e-08
5.2242017e-08
5.2241925e-08
5.2241957e-08
5.2242204e-08
5.2242458e-08
5.2242975e-08
5.2243475e-08
5.2244245e-08
5.2244976e-08
5.2245963e-08
5.2246887e-08
5.224804e-08
5.2249105e-08
5.2250363e-08
5.2251505e-08
5.2252795e-08
5.2253929e-08
5.2255155e-08
5.2256173e-08
5.2257212e-08
5.2257973e-08
5.2258657e-08
5.2258987e-08
5.2259069e-08
5.2258686e-08
5.2258514e-08
2.3437875e-08
4.9854154e-08
5.5057768e-08
5.5858709e-08
5.5977945e-08
5.5988974e-08
5.5981654e-08
5.5971336e-08
5.5960753e-08
5.595041e-08
5.5940407e-08
5.5930741e-08
5.5921413e-08
5.5912396e-08
5.5903692e-08
5.5895276e-08
5.5887153e-08
5.5879297e-08
5.5871718e-08
5.5864389e-08
5.5857325e-08
5.5850497e-08
5.5843924e-08
5.5837573e-08
5.5831471e-08
5.582558e-08
5.5819932e-08
5.5814485e-08
5.5809277e-08
5.5804261e-08
5.5799481e-08
5.5794882e-08
5.5790518e-08
5.5786327e-08
5.578237e-08
5.5778575e-08
5.5775013e-08
5.5771604e-08
5.5768426e-08
5.5765387e-08
5.5762568e-08
5.5759881e-08
5.5757439e-08
5.5755107e-08
5.575296e-08
5.5751006e-08
5.5749248e-08
5.5747668e-08
5.5746239e-08
5.5744978e-08
5.5743865e-08
5.5742908e-08
5.5742094e-08
5.5741424e-08
5.5740891e-08
5.5740491e-08
5.5740226e-08
5.5740096e-08
5.5740122e-08
5.5740156e-08
5.5740397e-08
5.5740589e-08
5.5741016e-08
5.5741369e-08
5.5741951e-08
5.5742436e-08
5.5743127e-08
5.5743705e-08
5.5744453e-08
5.5745073e-08
5.574582e-08
5.5746412e-08
5.5747082e-08
5.5747558e-08
5.5748048e-08
5.5748295e-08
5.5748472e-08
5.5748356e-08
5.5747995e-08
5.5747253e-08
5.5746495e-08
3.8471483e-08
5.734022e-08
5.9562352e-08
5.9810026e-08
5.9835539e-08
5.9833533e-08
5.9827537e-08
5.9821229e-08
5.9815044e-08
5.9809073e-08
5.9803297e-08
5.9797731e-08
5.9792343e-08
5.9787149e-08
5.9782118e-08
5.9777267e-08
5.9772566e-08
5.9768036e-08
5.9763646e-08
5.9759417e-08
5.9755321e-08
5.9751378e-08
5.9747561e-08
5.9743891e-08
5.9740343e-08
5.9736934e-08
5.9733646e-08
5.973049e-08
5.9727453e-08
5.9724542e-08
5.9721748e-08
5.9719076e-08
5.9716519e-08
5.9714077e-08
5.9711751e-08
5.9709534e-08
5.9707433e-08
5.9705434e-08
5.9703552e-08
5.9701763e-08
5.9700088e-08
5.9698501e-08
5.9697042e-08
5.969566e-08
5.969439e-08
5.9693194e-08
5.9692121e-08
5.9691144e-08
5.9690256e-08
5.9689457e-08
5.9688749e-08
5.9688119e-08
5.9687579e-08
5.9687108e-08
5.9686729e-08
5.9686406e-08
5.9686176e-08
5.968599e-08
5.9685915e-08
5.968584e-08
5.9685893e-08
5.9685883e-08
5.9686069e-08
5.9686122e-08
5.9686406e-08
5.9686519e-08
5.9686859e-08
5.9687014e-08
5.9687376e-08
5.9687545e-08
5.9687893e-08
5.9688034e-08
5.9688319e-08
5.9688385e-08
5.9688536e-08
5.9688466e-08
5.9688397e-08
5.9688085e-08
5.9687681e-08
5.968699e-08
5.9686223e-08
1.467142e-08
1.4677137e-08
1.467631e-08
1.4670803e-08
1.4663395e-08
1.4655115e-08
1.4646634e-08
1.4638078e-08
1.4629548e-08
1.4621096e-08
1.4612738e-08
1.4604496e-08
1.459637e-08
1.4588375e-08
1.4580511e-08
1.4572791e-08
1.4565216e-08
1.4557801e-08
1.4550548e-08
1.4543474e-08
1.4536583e-08
1.4529892e-08
1.4523408e-08
1.4517149e-08
1.4511122e-08
1.4505348e-08
1.4499834e-08
1.4494602e-08
1.448966e-08
1.4485029e-08
1.4480718e-08
1.447675e-08
1.4473132e-08
1.4469888e-08
1.4467025e-08
1.4464562e-08
1.4462536e-08
1.4460986e-08
1.4459935e-08
1.4459403e-08
1.445938e-08
1.4459853e-08
1.4460794e-08
1.4462186e-08
1.4464006e-08
1.4466242e-08
1.4468876e-08
1.4471891e-08
1.4475263e-08
1.4478961e-08
1.4482933e-08
1.4487101e-08
1.4491334e-08
1.4495425e-08
1.4499027e-08
1.4501589e-08
1.450223e-08
1.4499587e-08
1.4491577e-08
1.4475105e-08
1.4445667e-08
1.4396881e-08
1.431993e-08
1.4202986e-08
1.4030669e-08
1.3783675e-08
1.3438767e-08
1.2969375e-08
1.2347156e-08
1.1544939e-08
1.0541515e-08
9.3287304e-09
7.9208623e-09
6.3651493e-09
4.7500612e-09
3.2052057e-09
1.8861767e-09
9.4471036e-10
5.1557731e-10
9.4303353e-10
6.3465659e-09
1.4860213e-08
1.4866254e-08
1.48652e-08
1.4859397e-08
1.485171e-08
1.4843282e-08
1.4834616e-08
1.482589e-08
1.48172e-08
1.48086e-08
1.48001e-08
1.4791726e-08
1.4783473e-08
1.4775359e-08
1.4767379e-08
1.4759551e-08
1.4751871e-08
1.4744358e-08
1.473701e-08
1.4729848e-08
1.4722872e-08
1.4716102e-08
1.4709541e-08
1.4703211e-08
1.4697117e-08
1.469128e-08
1.4685707e-08
1.468042e-08
1.4675426e-08
1.4670747e-08
1.4666392e-08
1.4662382e-08
1.4658727e-08
1.4655447e-08
1.4652556e-08
1.465007e-08
1.464801e-08
1.4646428e-08
1.464535e-08
1.4644796e-08
1.4644757e-08
1.4645218e-08
1.4646151e-08
1.4647538e-08
1.4649357e-08
1.4651595e-08
1.4654234e-08
1.465726e-08
1.466065e-08
1.4664375e-08
1.4668388e-08
1.4672619e-08
1.4676953e-08
1.4681202e-08
1.4685059e-08
1.4688027e-08
1.4689315e-08
1.4687681e-08
1.4681222e-08
1.4667086e-08
1.4641085e-08
1.4597232e-08
1.4527173e-08
1.4419579e-08
1.4259538e-08
1.4028082e-08
1.3702016e-08
1.3254322e-08
1.2655463e-08
1.1876084e-08
1.0891591e-08
9.6892186e-09
8.2777689e-09
6.6992037e-09
5.0389023e-09
3.4282083e-09
2.031103e-09
1.0124703e-09
5.140473e-10
8.3604971e-10
5.5396113e-09
1.5061056e-08
1.5067381e-08
1.5066049e-08
1.5059903e-08
1.5051988e-08
1.5043356e-08
1.5034491e-08
1.5025587e-08
1.501673e-08
1.5007976e-08
1.4999331e-08
1.499082e-08
1.4982435e-08
1.4974198e-08
1.4966099e-08
1.4958159e-08
1.4950372e-08
1.4942758e-08
1.4935314e-08
1.4928062e-08
1.4920999e-08
1.4914149e-08
1.4907511e-08
1.490111e-08
1.4894948e-08
1.4889049e-08
1.4883417e-08
1.4878075e-08
1.487303e-08
1.4868304e-08
1.4863906e-08
1.4859855e-08
1.4856163e-08
1.485285e-08
1.4849928e-08
1.484742e-08
1.4845333e-08
1.4843719e-08
1.4842616e-08
1.484204e-08
1.4841986e-08
1.4842435e-08
1.4843361e-08
1.4844743e-08
1.4846561e-08
1.48488e-08
1.4851445e-08
1.4854482e-08
1.4857888e-08
1.4861639e-08
1.486569e-08
1.4869981e-08
1.4874408e-08
1.4878805e-08
1.4882899e-08
1.4886248e-08
1.488814e-08
1.4887457e-08
1.4882467e-08
1.4870557e-08
1.4847855e-08
1.4808773e-08
1.4745435e-08
1.4647041e-08
1.4499198e-08
1.4283348e-08
1.3976436e-08
1.3551107e-08
1.2976744e-08
1.2221877e-08
1.1258517e-08
1.0069119e-08
8.6566025e-09
7.0569533e-09
5.351549e-09
3.6726679e-09
2.1926403e-09
1.0909413e-09
5.1977203e-10
7.4425692e-10
4.8438621e-09
1.5274967e-08
1.5281519e-08
1.5279851e-08
1.5273349e-08
1.5265189e-08
1.5256326e-08
1.524725e-08
1.523816e-08
1.522913e-08
1.5220217e-08
1.5211421e-08
1.5202768e-08
1.5194248e-08
1.5185883e-08
1.5177663e-08
1.5169608e-08
1.5161711e-08
1.5153994e-08
1.5146452e-08
1.5139107e-08
1.5131957e-08
1.5125024e-08
1.511831e-08
1.5111836e-08
1.5105607e-08
1.5099644e-08
1.5093953e-08
1.5088557e-08
1.5083461e-08
1.5078689e-08
1.5074247e-08
1.5070157e-08
1.5066429e-08
1.5063082e-08
1.506013e-08
1.5057595e-08
1.505549e-08
1.5053847e-08
1.5052717e-08
1.5052121e-08
1.5052052e-08
1.5052491e-08
1.505341e-08
1.5054788e-08
1.5056604e-08
1.5058845e-08
1.5061496e-08
1.5064543e-08
1.5067965e-08
1.507174e-08
1.5075829e-08
1.5080176e-08
1.508469e-08
1.5089225e-08
1.509354e-08
1.5097242e-08
1.5099698e-08
1.5099905e-08
1.50963e-08
1.5086499e-08
1.5066945e-08
1.5032453e-08
1.4975636e-08
1.4886249e-08
1.4750468e-08
1.4550217e-08
1.4262688e-08
1.3860308e-08
1.331151e-08
1.2582811e-08
1.1642843e-08
1.0469143e-08
9.0583574e-09
7.4397758e-09
5.6897639e-09
3.9405597e-09
2.3725999e-09
1.1813029e-09
5.3287177e-10
6.6536087e-10
4.2365415e-09
1.550307e-08
1.5509783e-08
1.5507703e-08
1.5500857e-08
1.5492409e-08
1.5483297e-08
1.5474002e-08
1.5464716e-08
1.5455507e-08
1.5446428e-08
1.5437476e-08
1.5428676e-08
1.5420017e-08
1.541152e-08
1.5403175e-08
1.5395001e-08
1.5386992e-08
1.5379169e-08
1.5371527e-08
1.5364088e-08
1.5356848e-08
1.5349833e-08
1.534304e-08
1.5336493e-08
1.5330195e-08
1.5324169e-08
1.531842e-08
1.5312969e-08
1.5307824e-08
1.5303005e-08
1.5298521e-08
1.5294392e-08
1.5290628e-08
1.5287249e-08
1.5284268e-08
1.5281706e-08
1.5279582e-08
1.5277915e-08
1.5276759e-08
1.5276144e-08
1.527606e-08
1.5276489e-08
1.5277402e-08
1.5278776e-08
1.5280592e-08
1.5282835e-08
1.5285491e-08
1.5288547e-08
1.5291986e-08
1.5295784e-08
1.5299908e-08
1.5304308e-08
1.5308903e-08
1.5313566e-08
1.5318085e-08
1.5322115e-08
1.5325095e-08
1.5326133e-08
1.5323824e-08
1.5316014e-08
1.5299452e-08
1.5269357e-08
1.521884e-08
1.5138237e-08
1.5014339e-08
1.4829629e-08
1.4561651e-08
1.4182751e-08
1.3660556e-08
1.2959696e-08
1.2045476e-08
1.0890402e-08
9.4844694e-09
7.849524e-09
6.0558059e-09