/*--------------------------------*- C++ -*----------------------------------*\
| =========                 |                                                 |
| \\      /  F ield         | OpenFOAM: The Open Source CFD Toolbox           |
|  \\    /   O peration     | Version:  v2006                                 |
|   \\  /    A nd           | Website:  www.openfoam.com                      |
|    \\/     M anipulation  |                                                 |
\*---------------------------------------------------------------------------*/
FoamFile
{
    version     2.0;
    format      ascii;
    class       volScalarField;
    location    "5000";
    object      nut;
}
// * * * * * * * * * * * * * * * * * * * * * * * * * * * * * * * * * * * * * //

dimensions      [0 2 -1 0 0 0 0];


internalField   nonuniform List<scalar> 
102907
(
3.2563266e-11
3.4605415e-10
3.6613455e-09
1.3817773e-08
3.0507855e-08
4.913651e-08
6.5102029e-08
7.6554793e-08
8.3880784e-08
8.8242333e-08
9.0724018e-08
9.2094313e-08
9.2834546e-08
9.3227129e-08
9.3431348e-08
9.353476e-08
9.3585036e-08
9.3607679e-08
9.3616183e-08
9.3617569e-08
9.3615493e-08
9.3611803e-08
9.3607459e-08
9.3602925e-08
9.3598453e-08
9.3594146e-08
9.3590074e-08
9.358625e-08
9.3582704e-08
9.3579425e-08
9.3576438e-08
9.3573724e-08
9.3571309e-08
9.3569166e-08
9.3567325e-08
9.3565748e-08
9.356447e-08
9.356344e-08
9.3562688e-08
9.356215e-08
9.3561893e-08
9.3562011e-08
9.3562637e-08
9.3563628e-08
9.3564971e-08
9.3566579e-08
9.3568498e-08
9.3570665e-08
9.3573136e-08
9.3575851e-08
9.3578865e-08
9.3582125e-08
9.3585687e-08
9.3589495e-08
9.3593607e-08
9.3597967e-08
9.3602636e-08
9.3607557e-08
9.3612791e-08
9.3618282e-08
9.3624091e-08
9.3630163e-08
9.3636563e-08
9.3643238e-08
9.3650248e-08
9.3657552e-08
9.3665212e-08
9.3673184e-08
9.3681533e-08
9.3690224e-08
9.3699325e-08
9.3708803e-08
9.3718735e-08
9.3729092e-08
9.3739965e-08
9.3751332e-08
9.3763306e-08
9.3775884e-08
9.3789214e-08
9.3803368e-08
9.381857e-08
3.3738496e-11
4.4590624e-10
4.5486101e-09
1.6384084e-08
3.4684465e-08
5.3868845e-08
6.9347515e-08
7.9870364e-08
8.6300755e-08
8.9983996e-08
9.201114e-08
9.3097808e-08
9.3668949e-08
9.3963875e-08
9.411298e-08
9.4185717e-08
9.4219202e-08
9.4232747e-08
9.4236354e-08
9.423508e-08
9.4231536e-08
9.4226987e-08
9.422211e-08
9.42172e-08
9.4212437e-08
9.4207875e-08
9.4203572e-08
9.4199526e-08
9.4195764e-08
9.419227e-08
9.4189069e-08
9.4186139e-08
9.4183508e-08
9.4181143e-08
9.4179083e-08
9.4177282e-08
9.4175786e-08
9.4174526e-08
9.4173544e-08
9.4172752e-08
9.4172202e-08
9.4172039e-08
9.4172438e-08
9.4173189e-08
9.4174283e-08
9.4175623e-08
9.4177275e-08
9.417916e-08
9.4181349e-08
9.4183767e-08
9.4186483e-08
9.418943e-08
9.4192682e-08
9.4196159e-08
9.4199945e-08
9.4203957e-08
9.4208285e-08
9.4212839e-08
9.4217712e-08
9.4222815e-08
9.4228243e-08
9.4233903e-08
9.4239896e-08
9.4246131e-08
9.4252703e-08
9.4259533e-08
9.4266719e-08
9.4274176e-08
9.4282005e-08
9.4290133e-08
9.4298661e-08
9.4307513e-08
9.4316804e-08
9.432646e-08
9.4336606e-08
9.4347173e-08
9.4358308e-08
9.4369961e-08
9.4382308e-08
9.4395384e-08
9.4409434e-08
3.5430305e-11
5.764731e-10
5.6291761e-09
1.9320891e-08
3.9181123e-08
5.8675911e-08
7.3453343e-08
8.296471e-08
8.8514812e-08
9.1572183e-08
9.3198912e-08
9.4044729e-08
9.4476632e-08
9.4693326e-08
9.4799351e-08
9.484852e-08
9.4869383e-08
9.48762e-08
9.4876243e-08
9.4873031e-08
9.4868425e-08
9.4863229e-08
9.485795e-08
9.4852724e-08
9.4847724e-08
9.4842926e-08
9.4838425e-08
9.4834162e-08
9.4830209e-08
9.4826503e-08
9.4823111e-08
9.4819968e-08
9.4817144e-08
9.4814563e-08
9.4812303e-08
9.4810279e-08
9.4808574e-08
9.4807089e-08
9.4805893e-08
9.4804867e-08
9.4804084e-08
9.4803475e-08
9.4803756e-08
9.4804276e-08
9.4805124e-08
9.4806196e-08
9.4807589e-08
9.4809194e-08
9.4811107e-08
9.4813229e-08
9.4815658e-08
9.4818295e-08
9.4821243e-08
9.4824395e-08
9.482786e-08
9.4831532e-08
9.4835519e-08
9.4839715e-08
9.4844227e-08
9.4848951e-08
9.4853992e-08
9.4859251e-08
9.4864827e-08
9.4870632e-08
9.4876759e-08
9.4883129e-08
9.488983e-08
9.4896789e-08
9.4904094e-08
9.4911675e-08
9.4919624e-08
9.4927872e-08
9.4936517e-08
9.4945494e-08
9.4954908e-08
9.4964702e-08
9.4974997e-08
9.4985757e-08
9.4997123e-08
9.5009161e-08
9.5022074e-08
3.7931232e-11
7.4716453e-10
6.9391949e-09
2.2657292e-08
4.397278e-08
6.3500089e-08
7.7377411e-08
8.5825648e-08
9.0530617e-08
9.3021997e-08
9.4302534e-08
9.4947586e-08
9.526693e-08
9.5422168e-08
9.5495177e-08
9.552653e-08
9.5538091e-08
9.5540057e-08
9.5537541e-08
9.5532957e-08
9.552757e-08
9.5521903e-08
9.5516296e-08
9.5510825e-08
9.5505607e-08
9.5500618e-08
9.5495924e-08
9.5491479e-08
9.5487336e-08
9.5483448e-08
9.5479864e-08
9.5476538e-08
9.5473516e-08
9.5470749e-08
9.5468282e-08
9.5466068e-08
9.5464147e-08
9.5462465e-08
9.5461044e-08
9.5459812e-08
9.5458771e-08
9.5457836e-08
9.5457852e-08
9.5458202e-08
9.5458819e-08
9.545965e-08
9.5460776e-08
9.5462123e-08
9.5463753e-08
9.5465605e-08
9.5467735e-08
9.5470088e-08
9.5472718e-08
9.5475571e-08
9.5478702e-08
9.5482056e-08
9.5485688e-08
9.5489546e-08
9.5493681e-08
9.5498045e-08
9.5502685e-08
9.5507561e-08
9.5512712e-08
9.5518106e-08
9.5523781e-08
9.5529708e-08
9.5535923e-08
9.5542399e-08
9.5549176e-08
9.5556227e-08
9.5563595e-08
9.5571254e-08
9.5579254e-08
9.5587569e-08
9.5596257e-08
9.5605297e-08
9.5614759e-08
9.5624649e-08
9.5635048e-08
9.5646076e-08
9.5657873e-08
4.1401282e-11
9.702049e-10
8.520267e-09
2.6419172e-08
4.9023673e-08
6.8280998e-08
8.1083919e-08
8.8448521e-08
9.2360629e-08
9.4350537e-08
9.5337566e-08
9.5818475e-08
9.6048587e-08
9.6157028e-08
9.6204345e-08
9.6222845e-08
9.6227767e-08
9.6226312e-08
9.6222003e-08
9.6216454e-08
9.621051e-08
9.6204491e-08
9.6198631e-08
9.6192954e-08
9.6187556e-08
9.6182394e-08
9.6177535e-08
9.6172921e-08
9.6168613e-08
9.6164553e-08
9.6160801e-08
9.6157298e-08
9.6154102e-08
9.6151154e-08
9.6148505e-08
9.6146101e-08
9.6143989e-08
9.6142111e-08
9.6140492e-08
9.6139058e-08
9.613781e-08
9.6136662e-08
9.613621e-08
9.6136409e-08
9.6136812e-08
9.6137451e-08
9.6138344e-08
9.6139428e-08
9.6140796e-08
9.6142373e-08
9.6144222e-08
9.6146286e-08
9.6148615e-08
9.6151167e-08
9.6153974e-08
9.6157009e-08
9.6160296e-08
9.6163814e-08
9.6167584e-08
9.6171587e-08
9.6175839e-08
9.6180331e-08
9.618507e-08
9.6190053e-08
9.6195288e-08
9.6200772e-08
9.6206512e-08
9.6212508e-08
9.6218766e-08
9.622529e-08
9.6232088e-08
9.6239164e-08
9.624653e-08
9.6254192e-08
9.6262166e-08
9.6270465e-08
9.6279111e-08
9.6288147e-08
9.6297601e-08
9.6307639e-08
9.6318351e-08
4.6133148e-11
1.26151e-09
1.0419673e-08
3.0626653e-08
5.4285819e-08
7.2956869e-08
8.4544159e-08
9.0835603e-08
9.4020997e-08
9.5575992e-08
9.631931e-08
9.6668829e-08
9.6829538e-08
9.6902968e-08
9.6931386e-08
9.6940566e-08
9.6940814e-08
9.6936999e-08
9.6931457e-08
9.6925248e-08
9.6918906e-08
9.6912634e-08
9.6906573e-08
9.6900736e-08
9.6895181e-08
9.6889876e-08
9.6884868e-08
9.6880111e-08
9.6875653e-08
9.6871446e-08
9.6867537e-08
9.6863882e-08
9.6860521e-08
9.6857412e-08
9.6854592e-08
9.685202e-08
9.6849726e-08
9.6847671e-08
9.6845863e-08
9.6844246e-08
9.6842802e-08
9.6841462e-08
9.6840637e-08
9.6840645e-08
9.6840769e-08
9.6841196e-08
9.6841871e-08
9.6842755e-08
9.6843876e-08
9.6845185e-08
9.684676e-08
9.6848545e-08
9.6850576e-08
9.6852835e-08
9.6855322e-08
9.6858045e-08
9.6860992e-08
9.6864179e-08
9.6867587e-08
9.6871238e-08
9.6875108e-08
9.6879222e-08
9.6883555e-08
9.6888135e-08
9.6892935e-08
9.6897983e-08
9.6903253e-08
9.6908774e-08
9.6914521e-08
9.6920524e-08
9.692676e-08
9.6933262e-08
9.6940005e-08
9.6947025e-08
9.6954298e-08
9.696187e-08
9.6969716e-08
9.6977917e-08
9.6986447e-08
9.6995517e-08
9.7005177e-08
5.2501344e-11
1.6417205e-09
1.2690753e-08
3.5291739e-08
5.9699126e-08
7.7467413e-08
8.7737995e-08
9.299589e-08
9.5530874e-08
9.6717081e-08
9.7262502e-08
9.7509259e-08
9.7618838e-08
9.7663708e-08
9.7679597e-08
9.7682479e-08
9.7679564e-08
9.7674177e-08
9.7667807e-08
9.7661164e-08
9.765454e-08
9.7648096e-08
9.7641876e-08
9.7635922e-08
9.7630232e-08
9.7624819e-08
9.7619677e-08
9.761481e-08
9.7610213e-08
9.7605889e-08
9.7601835e-08
9.7598053e-08
9.7594539e-08
9.7591296e-08
9.7588314e-08
9.7585597e-08
9.7583133e-08
9.7580924e-08
9.7578938e-08
9.757716e-08
9.7575529e-08
9.757402e-08
9.7572974e-08
9.7572702e-08
9.7572453e-08
9.7572726e-08
9.7573177e-08
9.7573836e-08
9.7574727e-08
9.7575827e-08
9.7577147e-08
9.7578656e-08
9.7580398e-08
9.7582372e-08
9.7584545e-08
9.7586967e-08
9.7589578e-08
9.7592443e-08
9.7595497e-08
9.7598803e-08
9.7602297e-08
9.7606044e-08
9.7609976e-08
9.7614159e-08
9.7618528e-08
9.7623148e-08
9.7627952e-08
9.7633008e-08
9.7638249e-08
9.7643743e-08
9.7649425e-08
9.7655364e-08
9.7661494e-08
9.7667885e-08
9.7674471e-08
9.7681331e-08
9.7688397e-08
9.769578e-08
9.7703411e-08
9.7711536e-08
9.7720179e-08
6.1048262e-11
2.137543e-09
1.5393089e-08
4.0415215e-08
6.5191916e-08
8.1756652e-08
9.0654668e-08
9.4944393e-08
9.6911554e-08
9.7792458e-08
9.818107e-08
9.8349195e-08
9.8420673e-08
9.8446159e-08
9.8452906e-08
9.8451417e-08
9.8446403e-08
9.8439984e-08
9.8433095e-08
9.8426166e-08
9.8419371e-08
9.8412803e-08
9.8406483e-08
9.8400436e-08
9.8394655e-08
9.8389152e-08
9.8383913e-08
9.837895e-08
9.8374249e-08
9.8369822e-08
9.8365655e-08
9.836176e-08
9.8358122e-08
9.8354756e-08
9.8351641e-08
9.8348793e-08
9.8346184e-08
9.8343833e-08
9.8341693e-08
9.8339764e-08
9.833797e-08
9.8336301e-08
9.8335065e-08
9.8334597e-08
9.8333918e-08
9.8334073e-08
9.8334268e-08
9.8334705e-08
9.8335359e-08
9.833623e-08
9.8337306e-08
9.8338595e-08
9.8340078e-08
9.8341764e-08
9.8343642e-08
9.8345763e-08
9.8348055e-08
9.8350599e-08
9.8353316e-08
9.8356276e-08
9.835941e-08
9.8362788e-08
9.8366332e-08
9.8370117e-08
9.8374069e-08
9.8378261e-08
9.8382615e-08
9.8387206e-08
9.8391957e-08
9.8396945e-08
9.8402089e-08
9.840747e-08
9.8413004e-08
9.8418776e-08
9.8424694e-08
9.8430855e-08
9.8437164e-08
9.8443747e-08
9.8450507e-08
9.8457709e-08
9.8465376e-08
7.2584125e-11
2.7834574e-09
1.8592519e-08
4.5983109e-08
7.0682531e-08
8.5776015e-08
9.3293251e-08
9.670139e-08
9.8185642e-08
9.8820322e-08
9.9087952e-08
9.9199052e-08
9.9240655e-08
9.9253606e-08
9.9254363e-08
9.9250082e-08
9.9243728e-08
9.9236698e-08
9.9229485e-08
9.9222412e-08
9.9215505e-08
9.9208885e-08
9.9202491e-08
9.9196406e-08
9.9190552e-08
9.9185005e-08
9.9179686e-08
9.9174671e-08
9.9169881e-08
9.916539e-08
9.9161123e-08
9.9157152e-08
9.9153403e-08
9.9149948e-08
9.9146712e-08
9.9143763e-08
9.9141023e-08
9.9138558e-08
9.9136276e-08
9.9134225e-08
9.913228e-08
9.9130478e-08
9.9129058e-08
9.9128429e-08
9.9127521e-08
9.9127339e-08
9.9127293e-08
9.9127543e-08
9.9127973e-08
9.9128626e-08
9.9129459e-08
9.9130509e-08
9.9131738e-08
9.9133183e-08
9.9134802e-08
9.9136633e-08
9.9138613e-08
9.9140846e-08
9.9143237e-08
9.9145856e-08
9.9148638e-08
9.9151654e-08
9.9154821e-08
9.9158214e-08
9.9161759e-08
9.9165531e-08
9.9169445e-08
9.917358e-08
9.9177853e-08
9.9182341e-08
9.9186961e-08
9.9191794e-08
9.9196749e-08
9.9201913e-08
9.9207184e-08
9.921266e-08
9.9218238e-08
9.922404e-08
9.9229961e-08
9.9236265e-08
9.9243e-08
8.8347561e-11
3.6239048e-09
2.2360807e-08
5.196261e-08
7.6082103e-08
8.9487094e-08
9.5662542e-08
9.8291186e-08
9.9376238e-08
9.9817884e-08
9.9995318e-08
1.00064e-07
1.0008622e-07
1.0009044e-07
1.000873e-07
1.0008125e-07
1.0007413e-07
1.0006674e-07
1.0005939e-07
1.0005224e-07
1.0004532e-07
1.0003867e-07
1.0003228e-07
1.0002617e-07
1.000203e-07
1.0001472e-07
1.0000938e-07
1.0000433e-07
9.99995e-08
9.9994957e-08
9.9990639e-08
9.9986604e-08
9.9982789e-08
9.9979256e-08
9.9975938e-08
9.9972899e-08
9.9970064e-08
9.9967497e-08
9.9965106e-08
9.9962943e-08
9.996088e-08
9.9958956e-08
9.9957385e-08
9.9956596e-08
9.9955501e-08
9.9955154e-08
9.9954666e-08
9.9954786e-08
9.9955008e-08
9.995545e-08
9.9956058e-08
9.9956876e-08
9.995786e-08
9.9959051e-08
9.9960408e-08
9.9961968e-08
9.9963694e-08
9.9965619e-08
9.9967703e-08
9.996998e-08
9.9972427e-08
9.9975085e-08
9.9977889e-08
9.9980895e-08
9.9984047e-08
9.9987403e-08
9.9990892e-08
9.9994577e-08
9.9998385e-08
1.0000238e-07
1.0000649e-07
1.0001079e-07
1.0001518e-07
1.0001975e-07
1.000244e-07
1.0002921e-07
1.0003408e-07
1.0003913e-07
1.0004424e-07
1.0004968e-07
1.0005552e-07
1.1033964e-10
4.716188e-09
2.6774607e-08
5.8297728e-08
8.1298527e-08
9.2864287e-08
9.7780392e-08
9.9741107e-08
1.0050614e-07
1.0080117e-07
1.0091414e-07
1.0095187e-07
1.0096163e-07
1.0096039e-07
1.0095488e-07
1.0094783e-07
1.0094031e-07
1.0093278e-07
1.0092541e-07
1.0091827e-07
1.0091139e-07
1.0090478e-07
1.0089842e-07
1.0089233e-07
1.008865e-07
1.0088093e-07
1.008756e-07
1.0087055e-07
1.0086572e-07
1.0086116e-07
1.0085683e-07
1.0085276e-07
1.0084891e-07
1.0084533e-07
1.0084196e-07
1.0083886e-07
1.0083596e-07
1.0083331e-07
1.0083084e-07
1.0082859e-07
1.0082643e-07
1.0082441e-07
1.0082271e-07
1.0082178e-07
1.0082052e-07
1.0082001e-07
1.0081924e-07
1.0081917e-07
1.0081915e-07
1.008194e-07
1.008198e-07
1.008204e-07
1.0082115e-07
1.008221e-07
1.0082321e-07
1.008245e-07
1.0082595e-07
1.0082759e-07
1.0082938e-07
1.0083136e-07
1.0083349e-07
1.008358e-07
1.0083825e-07
1.0084088e-07
1.0084365e-07
1.008466e-07
1.0084967e-07
1.0085292e-07
1.0085628e-07
1.008598e-07
1.0086342e-07
1.0086719e-07
1.0087104e-07
1.0087503e-07
1.0087907e-07
1.0088323e-07
1.0088743e-07
1.0089175e-07
1.0089608e-07
1.0090069e-07
1.009057e-07
1.418769e-10
6.1344023e-09
3.1913345e-08
6.490514e-08
8.6241871e-08
9.5896539e-08
9.9672609e-08
1.0108009e-07
1.0159727e-07
1.0178606e-07
1.0185145e-07
1.0187007e-07
1.0187182e-07
1.0186727e-07
1.0186044e-07
1.0185291e-07
1.0184525e-07
1.0183774e-07
1.0183044e-07
1.018234e-07
1.0181661e-07
1.0181009e-07
1.0180382e-07
1.0179782e-07
1.0179205e-07
1.0178655e-07
1.0178127e-07
1.0177627e-07
1.0177147e-07
1.0176695e-07
1.0176263e-07
1.0175857e-07
1.0175472e-07
1.0175113e-07
1.0174774e-07
1.0174461e-07
1.0174167e-07
1.0173897e-07
1.0173645e-07
1.0173414e-07
1.0173192e-07
1.0172984e-07
1.0172802e-07
1.0172699e-07
1.0172556e-07
1.0172494e-07
1.0172399e-07
1.0172375e-07
1.0172335e-07
1.0172348e-07
1.0172369e-07
1.0172408e-07
1.0172463e-07
1.0172535e-07
1.0172622e-07
1.0172726e-07
1.0172845e-07
1.0172981e-07
1.0173132e-07
1.0173299e-07
1.0173481e-07
1.0173679e-07
1.0173891e-07
1.0174119e-07
1.0174359e-07
1.0174615e-07
1.0174882e-07
1.0175164e-07
1.0175456e-07
1.0175762e-07
1.0176076e-07
1.0176403e-07
1.0176735e-07
1.0177079e-07
1.0177425e-07
1.0177781e-07
1.0178135e-07
1.0178498e-07
1.0178856e-07
1.0179238e-07
1.0179657e-07
1.8863653e-10
7.9749856e-09
3.7854992e-08
7.1671026e-08
9.0830742e-08
9.8588307e-08
1.0137137e-07
1.0233753e-07
1.0266992e-07
1.0278435e-07
1.028177e-07
1.0282429e-07
1.0282127e-07
1.0281492e-07
1.0280747e-07
1.0279981e-07
1.0279222e-07
1.0278485e-07
1.0277771e-07
1.0277084e-07
1.0276421e-07
1.0275785e-07
1.0275172e-07
1.0274586e-07
1.0274022e-07
1.0273484e-07
1.0272967e-07
1.0272475e-07
1.0272004e-07
1.0271559e-07
1.0271133e-07
1.0270733e-07
1.0270352e-07
1.0269996e-07
1.0269659e-07
1.0269346e-07
1.0269052e-07
1.0268781e-07
1.0268527e-07
1.0268293e-07
1.0268069e-07
1.0267857e-07
1.0267666e-07
1.0267555e-07
1.0267399e-07
1.0267328e-07
1.0267216e-07
1.0267181e-07
1.0267111e-07
1.0267112e-07
1.026711e-07
1.0267131e-07
1.0267166e-07
1.0267217e-07
1.0267282e-07
1.0267363e-07
1.0267458e-07
1.0267567e-07
1.0267691e-07
1.0267829e-07
1.0267981e-07
1.0268148e-07
1.0268327e-07
1.0268521e-07
1.0268726e-07
1.0268945e-07
1.0269173e-07
1.0269415e-07
1.0269665e-07
1.0269927e-07
1.0270194e-07
1.0270473e-07
1.0270754e-07
1.0271046e-07
1.0271335e-07
1.0271634e-07
1.0271924e-07
1.0272224e-07
1.0272509e-07
1.0272817e-07
1.0273155e-07
2.6054004e-10
1.0364946e-08
4.4668253e-08
7.8450221e-08
9.4999246e-08
1.0095943e-07
1.0291333e-07
1.0354216e-07
1.0374454e-07
1.0380582e-07
1.0382054e-07
1.0382006e-07
1.0381448e-07
1.0380731e-07
1.0379972e-07
1.0379219e-07
1.0378482e-07
1.0377771e-07
1.0377081e-07
1.037642e-07
1.037578e-07
1.0375167e-07
1.0374575e-07
1.037401e-07
1.0373464e-07
1.0372944e-07
1.0372443e-07
1.0371967e-07
1.037151e-07
1.0371078e-07
1.0370663e-07
1.0370274e-07
1.0369901e-07
1.0369553e-07
1.0369221e-07
1.0368915e-07
1.0368623e-07
1.0368356e-07
1.0368103e-07
1.036787e-07
1.0367647e-07
1.0367436e-07
1.0367238e-07
1.0367124e-07
1.0366956e-07
1.036688e-07
1.0366753e-07
1.0366711e-07
1.0366623e-07
1.0366613e-07
1.0366572e-07
1.0366587e-07
1.0366603e-07
1.0366636e-07
1.0366681e-07
1.036674e-07
1.0366811e-07
1.0366897e-07
1.0366995e-07
1.0367107e-07
1.036723e-07
1.0367368e-07
1.0367515e-07
1.0367677e-07
1.0367847e-07
1.0368032e-07
1.0368222e-07
1.0368427e-07
1.0368634e-07
1.0368856e-07
1.0369077e-07
1.0369313e-07
1.0369543e-07
1.0369787e-07
1.0370021e-07
1.0370267e-07
1.0370496e-07
1.0370737e-07
1.0370954e-07
1.0371194e-07
1.0371453e-07
3.7517068e-10
1.3474784e-08
5.2398704e-08
8.5069508e-08
9.8703781e-08
1.0304383e-07
1.0433761e-07
1.0472086e-07
1.0483529e-07
1.0486361e-07
1.0486709e-07
1.048628e-07
1.0485605e-07
1.0484873e-07
1.0484132e-07
1.0483412e-07
1.0482709e-07
1.0482035e-07
1.0481379e-07
1.0480752e-07
1.0480143e-07
1.0479563e-07
1.0478999e-07
1.0478462e-07
1.0477941e-07
1.0477447e-07
1.0476968e-07
1.0476516e-07
1.0476077e-07
1.0475665e-07
1.0475267e-07
1.0474894e-07
1.0474534e-07
1.0474201e-07
1.0473879e-07
1.0473584e-07
1.04733e-07
1.0473041e-07
1.0472792e-07
1.0472567e-07
1.0472346e-07
1.0472143e-07
1.047194e-07
1.0471828e-07
1.047165e-07
1.0471574e-07
1.0471433e-07
1.0471389e-07
1.0471284e-07
1.0471268e-07
1.0471198e-07
1.0471209e-07
1.04712e-07
1.0471218e-07
1.0471244e-07
1.0471286e-07
1.0471335e-07
1.04714e-07
1.0471473e-07
1.0471561e-07
1.0471656e-07
1.0471768e-07
1.0471884e-07
1.0472017e-07
1.0472153e-07
1.0472306e-07
1.0472459e-07
1.0472629e-07
1.0472796e-07
1.0472981e-07
1.0473158e-07
1.0473352e-07
1.0473535e-07
1.0473734e-07
1.0473916e-07
1.0474114e-07
1.0474287e-07
1.0474473e-07
1.0474628e-07
1.0474805e-07
1.0474991e-07
5.6388145e-10
1.7540027e-08
6.1045178e-08
9.1336872e-08
1.0192856e-07
1.0488705e-07
1.0568373e-07
1.0590034e-07
1.059556e-07
1.0596613e-07
1.0596382e-07
1.0595785e-07
1.059509e-07
1.0594384e-07
1.0593687e-07
1.0593014e-07
1.0592359e-07
1.0591731e-07
1.0591122e-07
1.0590538e-07
1.0589972e-07
1.0589431e-07
1.0588905e-07
1.0588405e-07
1.0587919e-07
1.0587457e-07
1.0587009e-07
1.0586586e-07
1.0586176e-07
1.0585789e-07
1.0585415e-07
1.0585065e-07
1.0584726e-07
1.0584411e-07
1.0584107e-07
1.0583827e-07
1.0583557e-07
1.0583311e-07
1.0583073e-07
1.0582858e-07
1.0582646e-07
1.0582454e-07
1.0582255e-07
1.0582143e-07
1.0581964e-07
1.0581888e-07
1.058174e-07
1.0581695e-07
1.0581579e-07
1.0581559e-07
1.0581475e-07
1.0581481e-07
1.0581434e-07
1.0581449e-07
1.0581458e-07
1.0581484e-07
1.0581515e-07
1.0581561e-07
1.0581612e-07
1.0581678e-07
1.0581748e-07
1.0581834e-07
1.0581923e-07
1.0582028e-07
1.0582134e-07
1.0582256e-07
1.0582375e-07
1.0582512e-07
1.0582642e-07
1.0582789e-07
1.0582927e-07
1.0583081e-07
1.0583222e-07
1.0583378e-07
1.0583514e-07
1.0583664e-07
1.0583789e-07
1.0583925e-07
1.0584025e-07
1.0584144e-07
1.0584264e-07
8.8253748e-10
2.2899719e-08
7.0521743e-08
9.7058752e-08
1.046891e-07
1.0654297e-07
1.0698951e-07
1.0709952e-07
1.0712143e-07
1.0712219e-07
1.0711727e-07
1.0711094e-07
1.0710434e-07
1.0709785e-07
1.0709151e-07
1.0708541e-07
1.0707948e-07
1.070738e-07
1.0706828e-07
1.0706299e-07
1.0705786e-07
1.0705295e-07
1.0704818e-07
1.0704364e-07
1.0703923e-07
1.0703504e-07
1.0703096e-07
1.0702711e-07
1.0702337e-07
1.0701984e-07
1.0701642e-07
1.0701322e-07
1.0701012e-07
1.0700723e-07
1.0700443e-07
1.0700186e-07
1.0699936e-07
1.0699708e-07
1.0699487e-07
1.0699288e-07
1.0699091e-07
1.0698913e-07
1.0698728e-07
1.0698616e-07
1.0698445e-07
1.069837e-07
1.0698224e-07
1.0698177e-07
1.0698059e-07
1.0698034e-07
1.0697943e-07
1.069794e-07
1.0697875e-07
1.0697889e-07
1.0697872e-07
1.069789e-07
1.0697904e-07
1.0697933e-07
1.0697965e-07
1.0698012e-07
1.069806e-07
1.0698123e-07
1.0698187e-07
1.0698266e-07
1.0698344e-07
1.0698437e-07
1.0698526e-07
1.0698631e-07
1.0698728e-07
1.0698842e-07
1.0698943e-07
1.0699061e-07
1.0699162e-07
1.0699279e-07
1.0699374e-07
1.0699483e-07
1.0699563e-07
1.0699656e-07
1.0699708e-07
1.0699779e-07
1.0699839e-07
1.4305661e-09
3.0070439e-08
8.0600728e-08
1.0206433e-07
1.0703224e-07
1.0807005e-07
1.0829174e-07
1.0833696e-07
1.0834285e-07
1.0833953e-07
1.0833404e-07
1.0832816e-07
1.083223e-07
1.0831662e-07
1.083111e-07
1.0830578e-07
1.0830063e-07
1.0829568e-07
1.0829088e-07
1.0828628e-07
1.082818e-07
1.0827753e-07
1.0827337e-07
1.0826941e-07
1.0826555e-07
1.0826189e-07
1.0825832e-07
1.0825496e-07
1.0825168e-07
1.0824859e-07
1.0824558e-07
1.0824277e-07
1.0824004e-07
1.082375e-07
1.0823502e-07
1.0823275e-07
1.0823053e-07
1.0822851e-07
1.0822654e-07
1.0822476e-07
1.08223e-07
1.0822143e-07
1.0821979e-07
1.0821871e-07
1.0821717e-07
1.0821645e-07
1.0821508e-07
1.0821462e-07
1.0821348e-07
1.0821321e-07
1.082123e-07
1.0821222e-07
1.0821154e-07
1.0821162e-07
1.0821114e-07
1.0821137e-07
1.0821134e-07
1.0821149e-07
1.0821168e-07
1.0821195e-07
1.0821227e-07
1.0821267e-07
1.0821312e-07
1.0821365e-07
1.0821421e-07
1.0821486e-07
1.082155e-07
1.0821624e-07
1.0821694e-07
1.0821773e-07
1.0821846e-07
1.0821927e-07
1.0821998e-07
1.0822076e-07
1.0822139e-07
1.0822208e-07
1.0822255e-07
1.0822309e-07
1.0822325e-07
1.0822355e-07
1.0822367e-07
2.385378e-09
3.9904287e-08
9.084141e-08
1.0623697e-07
1.0903322e-07
1.0952681e-07
1.096184e-07
1.0963183e-07
1.0963056e-07
1.096262e-07
1.0962127e-07
1.0961633e-07
1.0961152e-07
1.0960686e-07
1.0960235e-07
1.0959801e-07
1.095938e-07
1.0958976e-07
1.0958583e-07
1.0958206e-07
1.0957841e-07
1.0957491e-07
1.095715e-07
1.0956825e-07
1.0956509e-07
1.0956209e-07
1.0955916e-07
1.0955639e-07
1.0955369e-07
1.0955116e-07
1.0954868e-07
1.0954636e-07
1.095441e-07
1.09542e-07
1.0953995e-07
1.0953806e-07
1.0953621e-07
1.0953454e-07
1.0953288e-07
1.095314e-07
1.0952992e-07
1.0952862e-07
1.0952729e-07
1.0952629e-07
1.0952499e-07
1.0952437e-07
1.0952314e-07
1.0952278e-07
1.0952171e-07
1.095215e-07
1.0952061e-07
1.0952056e-07
1.0951984e-07
1.0951993e-07
1.0951935e-07
1.0951957e-07
1.0951928e-07
1.0951943e-07
1.0951946e-07
1.0951964e-07
1.0951977e-07
1.0952004e-07
1.0952026e-07
1.0952064e-07
1.0952095e-07
1.0952141e-07
1.0952178e-07
1.0952231e-07
1.095227e-07
1.0952328e-07
1.0952367e-07
1.0952426e-07
1.0952462e-07
1.0952516e-07
1.0952544e-07
1.095259e-07
1.0952602e-07
1.0952634e-07
1.0952617e-07
1.0952624e-07
1.0952595e-07
4.0513371e-09
5.3972358e-08
1.005258e-07
1.0954567e-07
1.107886e-07
1.1096946e-07
1.1099573e-07
1.109971e-07
1.1099419e-07
1.1099051e-07
1.1098682e-07
1.1098318e-07
1.1097969e-07
1.1097628e-07
1.1097302e-07
1.1096985e-07
1.1096681e-07
1.1096385e-07
1.10961e-07
1.1095825e-07
1.1095559e-07
1.1095304e-07
1.1095056e-07
1.1094819e-07
1.1094588e-07
1.1094369e-07
1.1094154e-07
1.1093953e-07
1.1093754e-07
1.1093569e-07
1.1093386e-07
1.1093218e-07
1.1093049e-07
1.1092897e-07
1.1092743e-07
1.1092607e-07
1.1092467e-07
1.1092346e-07
1.1092219e-07
1.1092113e-07
1.1091999e-07
1.1091907e-07
1.1091807e-07
1.1091728e-07
1.1091631e-07
1.1091585e-07
1.1091484e-07
1.1091463e-07
1.1091372e-07
1.1091361e-07
1.1091282e-07
1.1091283e-07
1.1091216e-07
1.1091227e-07
1.1091171e-07
1.109119e-07
1.1091146e-07
1.1091169e-07
1.1091155e-07
1.1091167e-07
1.1091167e-07
1.1091182e-07
1.1091189e-07
1.1091212e-07
1.1091225e-07
1.1091253e-07
1.109127e-07
1.1091301e-07
1.109132e-07
1.1091354e-07
1.1091373e-07
1.1091405e-07
1.1091421e-07
1.1091449e-07
1.1091458e-07
1.1091478e-07
1.1091473e-07
1.1091484e-07
1.1091455e-07
1.1091441e-07
1.1091399e-07
6.9181625e-09
7.5616491e-08
1.0862881e-07
1.120641e-07
1.1240505e-07
1.1244383e-07
1.1244706e-07
1.1244561e-07
1.1244361e-07
1.1244145e-07
1.1243946e-07
1.1243742e-07
1.1243557e-07
1.1243366e-07
1.1243193e-07
1.1243014e-07
1.1242853e-07
1.1242686e-07
1.1242535e-07
1.124238e-07
1.1242239e-07
1.1242094e-07
1.1241963e-07
1.1241829e-07
1.1241706e-07
1.1241582e-07
1.1241468e-07
1.1241353e-07
1.1241248e-07
1.1241143e-07
1.1241045e-07
1.1240949e-07
1.1240859e-07
1.1240772e-07
1.1240689e-07
1.1240611e-07
1.1240535e-07
1.1240467e-07
1.1240397e-07
1.1240337e-07
1.1240273e-07
1.1240222e-07
1.1240164e-07
1.1240121e-07
1.1240069e-07
1.1240037e-07
1.1239981e-07
1.1239969e-07
1.1239915e-07
1.123991e-07
1.1239859e-07
1.1239863e-07
1.1239817e-07
1.1239828e-07
1.1239786e-07
1.1239803e-07
1.1239767e-07
1.1239786e-07
1.1239763e-07
1.1239779e-07
1.1239763e-07
1.1239779e-07
1.1239768e-07
1.1239787e-07
1.1239781e-07
1.1239802e-07
1.1239798e-07
1.123982e-07
1.1239817e-07
1.123984e-07
1.1239836e-07
1.1239858e-07
1.1239853e-07
1.1239871e-07
1.1239861e-07
1.1239874e-07
1.1239857e-07
1.1239862e-07
1.1239833e-07
1.123982e-07
1.1239782e-07
8.5283486e-08
8.5288459e-08
8.5287716e-08
8.5281118e-08
8.5272761e-08
8.5263264e-08
8.5253584e-08
8.5243782e-08
8.523403e-08
8.5224355e-08
8.521481e-08
8.5205388e-08
8.5196121e-08
8.5186996e-08
8.5178041e-08
8.5169243e-08
8.5160631e-08
8.5152193e-08
8.514396e-08
8.5135924e-08
8.5128114e-08
8.5120527e-08
8.5113189e-08
8.5106103e-08
8.5099293e-08
8.5092766e-08
8.5086543e-08
8.5080636e-08
8.5075065e-08
8.5069841e-08
8.5064984e-08
8.5060506e-08
8.5056428e-08
8.5052761e-08
8.5049523e-08
8.5046719e-08
8.5044398e-08
8.5042586e-08
8.5041323e-08
8.5040618e-08
8.5040479e-08
8.5040878e-08
8.5041802e-08
8.5043216e-08
8.5045106e-08
8.504744e-08
8.5050196e-08
8.5053315e-08
8.5056717e-08
8.5060236e-08
8.5063588e-08
8.5066244e-08
8.5067291e-08
8.5065121e-08
8.5057024e-08
8.5038474e-08
8.5002128e-08
8.493627e-08
8.482268e-08
8.4633576e-08
8.4327636e-08
8.384483e-08
8.3100337e-08
8.197795e-08
8.0324442e-08
7.7947444e-08
7.4621478e-08
7.0108965e-08
6.4204411e-08
5.6807422e-08
4.8019666e-08
3.823778e-08
2.8184935e-08
1.8813117e-08
1.1053827e-08
5.5004984e-09
2.1956541e-09
6.6424719e-10
1.8266163e-10
1.215069e-10
1.5106365e-10
8.5499991e-08
8.5505357e-08
8.5504252e-08
8.5497415e-08
8.5488782e-08
8.547922e-08
8.5469411e-08
8.5459527e-08
8.5449686e-08
8.5439952e-08
8.5430339e-08
8.5420871e-08
8.5411553e-08
8.5402391e-08
8.5393396e-08
8.538457e-08
8.5375927e-08
8.5367469e-08
8.5359213e-08
8.5351163e-08
8.5343337e-08
8.533574e-08
8.5328391e-08
8.53213e-08
8.5314482e-08
8.5307953e-08
8.5301726e-08
8.5295818e-08
8.5290243e-08
8.5285019e-08
8.5280161e-08
8.5275683e-08
8.5271605e-08
8.5267937e-08
8.5264702e-08
8.5261903e-08
8.5259573e-08
8.5257746e-08
8.5256471e-08
8.5255751e-08
8.5255598e-08
8.5255981e-08
8.525689e-08
8.5258286e-08
8.5260159e-08
8.5262476e-08
8.526522e-08
8.5268336e-08
8.527176e-08
8.5275342e-08
8.5278842e-08
8.5281797e-08
8.5283414e-08
8.5282285e-08
8.5276028e-08
8.5260637e-08
8.5229572e-08
8.5172331e-08
8.5072455e-08
8.4904668e-08
8.4631045e-08
8.4195998e-08
8.3520168e-08
8.2493558e-08
8.0969089e-08
7.8758893e-08
7.5637667e-08
7.1359802e-08
6.5698993e-08
5.8518049e-08
4.9867402e-08
4.0089282e-08
2.9871724e-08
2.0177059e-08
1.2003651e-08
6.0469836e-09
2.4385307e-09
7.3634356e-10
1.888596e-10
1.1198042e-10
1.3732186e-10
8.5727978e-08
8.5733697e-08
8.5732215e-08
8.5725092e-08
8.5716262e-08
8.5706581e-08
8.5696642e-08
8.5686671e-08
8.5676744e-08
8.5666949e-08
8.5657274e-08
8.5647761e-08
8.5638393e-08
8.5629197e-08
8.5620164e-08
8.5611312e-08
8.560264e-08
8.5594165e-08
8.5585888e-08
8.5577827e-08
8.5569986e-08
8.5562384e-08
8.5555025e-08
8.5547933e-08
8.5541111e-08
8.5534582e-08
8.5528354e-08
8.552245e-08
8.5516878e-08
8.5511658e-08
8.5506805e-08
8.5502332e-08
8.5498258e-08
8.5494594e-08
8.5491362e-08
8.5488569e-08
8.5486236e-08
8.5484398e-08
8.5483108e-08
8.5482374e-08
8.5482205e-08
8.5482574e-08
8.5483464e-08
8.5484841e-08
8.5486693e-08
8.5488992e-08
8.5491718e-08
8.5494828e-08
8.5498262e-08
8.5501897e-08
8.5505519e-08
8.5508737e-08
8.5510858e-08
8.5510667e-08
8.5506075e-08
8.5493569e-08
8.5467358e-08
8.5418095e-08
8.5331005e-08
8.5183233e-08
8.4940179e-08
8.4550668e-08
8.394086e-08
8.3007206e-08
8.160929e-08
7.9564682e-08
7.6649668e-08
7.2612451e-08
6.7207866e-08
6.0262983e-08
5.1775814e-08
4.2029233e-08
3.1667538e-08
2.1654246e-08
1.305079e-08
6.6604323e-09
2.7163911e-09
8.211853e-10
1.9816803e-10
1.0370017e-10
1.2514817e-10
8.5968194e-08
8.5974192e-08
8.59723e-08
8.5964886e-08
8.5955861e-08
8.5946036e-08
8.5935971e-08
8.5925911e-08
8.5915904e-08
8.5906049e-08
8.5896314e-08
8.5886757e-08
8.5877344e-08
8.5868115e-08
8.5859046e-08
8.5850171e-08
8.5841473e-08
8.5832982e-08
8.5824687e-08
8.5816618e-08
8.5808765e-08
8.5801159e-08
8.5793796e-08
8.5786703e-08
8.5779881e-08
8.5773356e-08
8.5767133e-08
8.5761233e-08
8.5755669e-08
8.5750456e-08
8.5745611e-08
8.5741143e-08
8.5737077e-08
8.5733416e-08
8.5730189e-08
8.5727398e-08
8.5725073e-08
8.5723223e-08
8.5721921e-08
8.5721172e-08
8.5720991e-08
8.5721342e-08
8.5722217e-08
8.5723574e-08
8.5725406e-08
8.5727682e-08
8.5730391e-08
8.5733489e-08
8.573693e-08
8.5740602e-08
8.5744331e-08
8.5747773e-08
8.5750343e-08
8.5750985e-08
8.5747895e-08
8.5738003e-08
8.5716229e-08
8.5674301e-08
8.5599056e-08
8.5469957e-08
8.5255644e-08
8.4909284e-08
8.4362589e-08
8.3518632e-08
8.2244139e-08
8.0362993e-08
7.7654503e-08
7.3862658e-08
6.8725644e-08
6.2036375e-08
5.3739859e-08
4.4055123e-08
3.3573851e-08
2.3250311e-08
1.4203303e-08
7.3484489e-09
3.0341831e-09
9.2081991e-10
2.1096115e-10
9.6508511e-11
1.1416921e-10
8.6221435e-08
8.622763e-08
8.6225274e-08
8.6217594e-08
8.6208344e-08
8.6198367e-08
8.6188178e-08
8.6178028e-08
8.6167943e-08
8.6158028e-08
8.6148237e-08
8.6138636e-08
8.612918e-08
8.611992e-08
8.6110819e-08
8.6101922e-08
8.60932e-08
8.6084696e-08
8.6076385e-08
8.6068309e-08
8.6060448e-08
8.6052841e-08
8.6045475e-08
8.6038386e-08
8.6031568e-08
8.6025049e-08
8.6018834e-08
8.6012943e-08
8.6007389e-08
8.6002186e-08
8.5997351e-08
8.5992894e-08
8.5988837e-08
8.5985183e-08
8.5981962e-08
8.5979176e-08
8.5976858e-08
8.5975005e-08
8.5973691e-08
8.597293e-08
8.5972736e-08
8.5973074e-08
8.5973931e-08
8.5975269e-08
8.597708e-08
8.5979334e-08
8.5982022e-08
8.5985105e-08
8.5988545e-08
8.5992245e-08
8.5996059e-08
8.5999695e-08
8.6002655e-08
8.6004035e-08
8.6002286e-08
8.599475e-08
8.5977003e-08
8.5941783e-08
8.587745e-08
8.5765679e-08
8.5578246e-08
8.5272575e-08
8.4785919e-08
8.4028118e-08
8.2873457e-08
8.115298e-08
7.8650446e-08
7.51077e-08
7.0248737e-08
6.3834359e-08