/*--------------------------------*- C++ -*----------------------------------*\
| =========                 |                                                 |
| \\      /  F ield         | OpenFOAM: The Open Source CFD Toolbox           |
|  \\    /   O peration     | Version:  v2006                                 |
|   \\  /    A nd           | Website:  www.openfoam.com                      |
|    \\/     M anipulation  |                                                 |
\*---------------------------------------------------------------------------*/
FoamFile
{
    version     2.0;
    format      ascii;
    class       volScalarField;
    location    "5000";
    object      nutMean;
}
// * * * * * * * * * * * * * * * * * * * * * * * * * * * * * * * * * * * * * //

dimensions      [0 2 -1 0 0 0 0];


internalField   nonuniform List<scalar> 
102907
(
4.3857432e-11
3.5908479e-10
3.6807149e-09
1.3841177e-08
3.0528963e-08
4.915157e-08
6.5110724e-08
7.6558483e-08
8.3881107e-08
8.8240632e-08
9.0721194e-08
9.2090925e-08
9.2830892e-08
9.3223376e-08
9.3427575e-08
9.3531006e-08
9.358131e-08
9.3603992e-08
9.361253e-08
9.3613958e-08
9.3611917e-08
9.3608267e-08
9.3603957e-08
9.3599457e-08
9.3595008e-08
9.359072e-08
9.3586654e-08
9.3582831e-08
9.3579271e-08
9.3575973e-08
9.3572951e-08
9.3570203e-08
9.3567739e-08
9.3565558e-08
9.3563669e-08
9.3562064e-08
9.3560745e-08
9.3559694e-08
9.3558904e-08
9.3558356e-08
9.3558073e-08
9.3558203e-08
9.3558825e-08
9.3559837e-08
9.3561178e-08
9.3562815e-08
9.3564747e-08
9.3566958e-08
9.356945e-08
9.3572211e-08
9.3575245e-08
9.3578542e-08
9.3582107e-08
9.3585933e-08
9.3590026e-08
9.3594384e-08
9.3599015e-08
9.3603918e-08
9.3609101e-08
9.3614567e-08
9.3620323e-08
9.362637e-08
9.3632718e-08
9.3639369e-08
9.3646333e-08
9.3653614e-08
9.3661225e-08
9.3669174e-08
9.3677475e-08
9.3686141e-08
9.3695191e-08
9.3704643e-08
9.3714522e-08
9.3724854e-08
9.3735671e-08
9.3747013e-08
9.3758926e-08
9.3771477e-08
9.3784746e-08
9.3798881e-08
9.3814103e-08
4.6192174e-11
4.6077053e-10
4.5707325e-09
1.6409878e-08
3.4706861e-08
5.3884267e-08
6.9356079e-08
7.987378e-08
8.6300838e-08
8.9982146e-08
9.2008244e-08
9.3094401e-08
9.3665301e-08
9.3960144e-08
9.4109229e-08
9.4181986e-08
9.4215486e-08
9.4229067e-08
9.4232697e-08
9.423146e-08
9.4227939e-08
9.4223428e-08
9.4218574e-08
9.4213695e-08
9.4208948e-08
9.4204406e-08
9.4200106e-08
9.4196064e-08
9.4192288e-08
9.4188782e-08
9.418555e-08
9.4182596e-08
9.4179923e-08
9.4177533e-08
9.417543e-08
9.4173611e-08
9.417207e-08
9.4170797e-08
9.4169773e-08
9.4168979e-08
9.4168396e-08
9.4168254e-08
9.4168644e-08
9.4169417e-08
9.4170498e-08
9.4171867e-08
9.4173519e-08
9.4175445e-08
9.417764e-08
9.4180102e-08
9.4182826e-08
9.418581e-08
9.4189052e-08
9.4192554e-08
9.4196313e-08
9.4200334e-08
9.4204617e-08
9.4209168e-08
9.4213987e-08
9.4219081e-08
9.4224449e-08
9.42301e-08
9.4236034e-08
9.4242259e-08
9.4248778e-08
9.4255598e-08
9.4262726e-08
9.4270173e-08
9.4277946e-08
9.4286061e-08
9.4294528e-08
9.4303369e-08
9.4312598e-08
9.4322241e-08
9.4332322e-08
9.4342877e-08
9.4353944e-08
9.4365584e-08
9.4377864e-08
9.4390934e-08
9.4404988e-08
4.9238716e-11
5.9354221e-10
5.6543931e-09
1.9349092e-08
3.9204541e-08
5.8691327e-08
7.3461446e-08
8.2967622e-08
8.8514505e-08
9.157009e-08
9.3195872e-08
9.4041253e-08
9.4472938e-08
9.4689572e-08
9.479558e-08
9.4844778e-08
9.4865644e-08
9.4872504e-08
9.4872555e-08
9.4869387e-08
9.4864786e-08
9.4859631e-08
9.4854355e-08
9.4849165e-08
9.4844164e-08
9.4839396e-08
9.4834884e-08
9.4830637e-08
9.4826661e-08
9.4822958e-08
9.481953e-08
9.481638e-08
9.4813508e-08
9.4810919e-08
9.4808612e-08
9.4806587e-08
9.4804835e-08
9.4803349e-08
9.4802104e-08
9.4801083e-08
9.480026e-08
9.4799678e-08
9.4799959e-08
9.4800497e-08
9.4801326e-08
9.4802431e-08
9.4803814e-08
9.480546e-08
9.4807369e-08
9.4809536e-08
9.4811958e-08
9.4814635e-08
9.4817562e-08
9.4820744e-08
9.4824175e-08
9.4827862e-08
9.4831802e-08
9.4836002e-08
9.484046e-08
9.4845183e-08
9.4850169e-08
9.4855425e-08
9.4860949e-08
9.486675e-08
9.4872827e-08
9.487919e-08
9.488584e-08
9.4892789e-08
9.490004e-08
9.4907608e-08
9.4915501e-08
9.4923736e-08
9.4932324e-08
9.4941288e-08
9.4950643e-08
9.4960425e-08
9.4970658e-08
9.4981404e-08
9.4992711e-08
9.5004738e-08
9.5017661e-08
5.335942e-11
7.6688688e-10
6.967851e-09
2.2687859e-08
4.399692e-08
6.3515158e-08
7.7384814e-08
8.5827923e-08
9.0529867e-08
9.3019637e-08
9.429935e-08
9.4944034e-08
9.5263198e-08
9.5418387e-08
9.5491396e-08
9.5522771e-08
9.5534339e-08
9.5536344e-08
9.5533837e-08
9.5529289e-08
9.5523907e-08
9.5518274e-08
9.5512669e-08
9.5507226e-08
9.5502006e-08
9.5497038e-08
9.5492334e-08
9.5487902e-08
9.5483741e-08
9.5479855e-08
9.5476242e-08
9.5472909e-08
9.546985e-08
9.5467074e-08
9.5464573e-08
9.5462353e-08
9.5460401e-08
9.5458711e-08
9.5457257e-08
9.545602e-08
9.5454953e-08
9.5454024e-08
9.545408e-08
9.5454421e-08
9.5455032e-08
9.5455878e-08
9.5457002e-08
9.5458376e-08
9.5460007e-08
9.5461888e-08
9.5464015e-08
9.5466391e-08
9.546901e-08
9.5471877e-08
9.5474986e-08
9.5478344e-08
9.5481945e-08
9.5485799e-08
9.54899e-08
9.5494255e-08
9.5498861e-08
9.5503725e-08
9.5508843e-08
9.5514223e-08
9.5519863e-08
9.5525772e-08
9.5531949e-08
9.5538405e-08
9.5545141e-08
9.5552169e-08
9.5559494e-08
9.5567132e-08
9.5575087e-08
9.5583381e-08
9.5592023e-08
9.5601043e-08
9.5610458e-08
9.5620325e-08
9.563068e-08
9.5641687e-08
9.5653503e-08
5.8765212e-11
9.9310544e-10
8.5526854e-09
2.6451966e-08
4.9048152e-08
6.829537e-08
8.109042e-08
8.845008e-08
9.2359421e-08
9.434792e-08
9.5334255e-08
9.5814866e-08
9.6044832e-08
9.6153251e-08
9.6200555e-08
9.6219084e-08
9.6224016e-08
9.6222597e-08
9.6218299e-08
9.6212783e-08
9.6206843e-08
9.6200855e-08
9.6194994e-08
9.6189343e-08
9.6183938e-08
9.6178796e-08
9.6173923e-08
9.6169323e-08
9.6164995e-08
9.6160941e-08
9.615716e-08
9.6153656e-08
9.6150425e-08
9.6147472e-08
9.6144793e-08
9.6142389e-08
9.6140249e-08
9.6138367e-08
9.6136719e-08
9.6135281e-08
9.613401e-08
9.6132866e-08
9.6132476e-08
9.6132633e-08
9.6133039e-08
9.6133694e-08
9.6134581e-08
9.6135685e-08
9.6137052e-08
9.6138651e-08
9.6140495e-08
9.6142576e-08
9.6144896e-08
9.6147454e-08
9.6150248e-08
9.6153281e-08
9.6156549e-08
9.616006e-08
9.6163808e-08
9.6167799e-08
9.617203e-08
9.6176505e-08
9.6181221e-08
9.6186184e-08
9.6191392e-08
9.6196853e-08
9.6202563e-08
9.6208532e-08
9.6214758e-08
9.6221254e-08
9.6228019e-08
9.6235068e-08
9.62424e-08
9.6250036e-08
9.6257974e-08
9.6266247e-08
9.6274858e-08
9.6283864e-08
9.6293286e-08
9.6303295e-08
9.6314035e-08
6.5825129e-11
1.288198e-09
1.0456129e-08
3.0661412e-08
5.4310173e-08
7.2970193e-08
8.4549596e-08
9.0836403e-08
9.4019341e-08
9.5573138e-08
9.6315893e-08
9.666518e-08
9.6825771e-08
9.6899195e-08
9.6927607e-08
9.6936811e-08
9.6937074e-08
9.6933289e-08
9.6927761e-08
9.6921579e-08
9.6915245e-08
9.6908997e-08
9.6902938e-08
9.689712e-08
9.689156e-08
9.6886272e-08
9.6881251e-08
9.6876506e-08
9.6872029e-08
9.6867828e-08
9.6863894e-08
9.6860237e-08
9.6856848e-08
9.6853735e-08
9.685089e-08
9.6848317e-08
9.6846003e-08
9.6843944e-08
9.6842113e-08
9.684049e-08
9.6839027e-08
9.6837685e-08
9.6836971e-08
9.6836845e-08
9.6837023e-08
9.6837457e-08
9.6838126e-08
9.6839025e-08
9.6840142e-08
9.6841466e-08
9.6843039e-08
9.6844831e-08
9.684686e-08
9.6849118e-08
9.6851602e-08
9.6854317e-08
9.6857257e-08
9.686043e-08
9.686383e-08
9.6867462e-08
9.6871321e-08
9.6875414e-08
9.6879732e-08
9.6884285e-08
9.6889066e-08
9.6894085e-08
9.6899333e-08
9.6904823e-08
9.6910546e-08
9.6916518e-08
9.692273e-08
9.69292e-08
9.6935919e-08
9.6942907e-08
9.6950156e-08
9.6957695e-08
9.6965519e-08
9.6973682e-08
9.6982193e-08
9.6991225e-08
9.7000925e-08
7.5006948e-11
1.6728905e-09
1.2731448e-08
3.5328066e-08
5.972284e-08
7.7479372e-08
8.7742263e-08
9.2995923e-08
9.5528801e-08
9.6714016e-08
9.7259004e-08
9.7505586e-08
9.7615086e-08
9.7659938e-08
9.7675842e-08
9.7678738e-08
9.7675848e-08
9.7670479e-08
9.7664132e-08
9.7657504e-08
9.7650899e-08
9.7644466e-08
9.7638259e-08
9.7632313e-08
9.7626629e-08
9.762122e-08
9.7616078e-08
9.761121e-08
9.7606607e-08
9.7602278e-08
9.7598213e-08
9.7594421e-08
9.7590892e-08
9.7587637e-08
9.7584643e-08
9.7581917e-08
9.7579445e-08
9.7577224e-08
9.7575226e-08
9.7573433e-08
9.7571792e-08
9.7570271e-08
9.7569357e-08
9.7568882e-08
9.756879e-08
9.7569018e-08
9.7569461e-08
9.7570131e-08
9.757102e-08
9.7572131e-08
9.757345e-08
9.7574959e-08
9.7576707e-08
9.7578673e-08
9.7580853e-08
9.7583259e-08
9.7585874e-08
9.7588719e-08
9.7591775e-08
9.7595054e-08
9.7598547e-08
9.7602264e-08
9.760619e-08
9.7610339e-08
9.7614698e-08
9.7619283e-08
9.7624076e-08
9.7629094e-08
9.7634322e-08
9.7639779e-08
9.7645447e-08
9.7651348e-08
9.7657464e-08
9.7663819e-08
9.7670391e-08
9.7677212e-08
9.7684266e-08
9.7691606e-08
9.7699229e-08
9.7707309e-08
9.7716002e-08
8.697986e-11
2.1739704e-09
1.5438107e-08
4.0452569e-08
6.5214445e-08
8.1767009e-08
9.0657733e-08
9.4943722e-08
9.6909122e-08
9.7789242e-08
9.8177521e-08
9.8345535e-08
9.8416938e-08
9.8442427e-08
9.8449186e-08
9.8447713e-08
9.8442719e-08
9.8436318e-08
9.8429448e-08
9.8422533e-08
9.8415755e-08
9.8409198e-08
9.8402889e-08
9.8396849e-08
9.8391075e-08
9.8385574e-08
9.8380338e-08
9.8375373e-08
9.837067e-08
9.8366236e-08
9.8362063e-08
9.8358157e-08
9.8354511e-08
9.8351131e-08
9.8348009e-08
9.8345148e-08
9.8342536e-08
9.834017e-08
9.8338023e-08
9.8336076e-08
9.8334278e-08
9.8332592e-08
9.8331498e-08
9.8330815e-08
9.833034e-08
9.8330368e-08
9.833059e-08
9.8331036e-08
9.8331695e-08
9.8332569e-08
9.8333649e-08
9.8334937e-08
9.8336424e-08
9.8338103e-08
9.833999e-08
9.8342094e-08
9.8344393e-08
9.8346914e-08
9.8349636e-08
9.8352568e-08
9.8355703e-08
9.835905e-08
9.8362592e-08
9.8366343e-08
9.837029e-08
9.8374446e-08
9.8378793e-08
9.8383347e-08
9.838809e-08
9.8393039e-08
9.8398175e-08
9.8403517e-08
9.8409043e-08
9.8414776e-08
9.8420688e-08
9.8426807e-08
9.8433112e-08
9.8439649e-08
9.8446409e-08
9.8453562e-08
9.8461286e-08
1.027076e-10
2.8259793e-09
1.8641783e-08
4.6020791e-08
7.0703346e-08
8.5784581e-08
9.3295143e-08
9.6700072e-08
9.8182924e-08
9.8816987e-08
9.9084393e-08
9.91954e-08
9.9236987e-08
9.9249921e-08
9.9250709e-08
9.9246427e-08
9.9240107e-08
9.9233078e-08
9.9225897e-08
9.9218822e-08
9.9211944e-08
9.9205319e-08
9.9198951e-08
9.9192857e-08
9.9187025e-08
9.9181465e-08
9.9176164e-08
9.9171133e-08
9.9166357e-08
9.9161847e-08
9.915759e-08
9.9153597e-08
9.9149855e-08
9.9146376e-08
9.9143146e-08
9.9140174e-08
9.9137441e-08
9.9134952e-08
9.9132674e-08
9.9130594e-08
9.9128656e-08
9.9126827e-08
9.9125566e-08
9.91247e-08
9.9124014e-08
9.9123676e-08
9.9123695e-08
9.9123936e-08
9.9124377e-08
9.9125023e-08
9.9125866e-08
9.912691e-08
9.9128147e-08
9.9129582e-08
9.9131206e-08
9.9133023e-08
9.9135009e-08
9.9137219e-08
9.9139615e-08
9.9142206e-08
9.9144991e-08
9.9147978e-08
9.9151144e-08
9.9154504e-08
9.9158046e-08
9.9161783e-08
9.9165693e-08
9.9169792e-08
9.9174059e-08
9.9178511e-08
9.9183125e-08
9.9187921e-08
9.9192871e-08
9.9197997e-08
9.9203266e-08
9.92087e-08
9.9214278e-08
9.9220035e-08
9.922596e-08
9.9232217e-08
9.923901e-08
1.2364313e-10
3.6733978e-09
2.2413999e-08
5.1999781e-08
7.6100704e-08
8.949381e-08
9.5663336e-08
9.8289351e-08
9.9373306e-08
9.9814512e-08
9.9991801e-08
1.000604e-07
1.0008261e-07
1.0008684e-07
1.0008372e-07
1.0007768e-07
1.0007057e-07
1.000632e-07
1.0005587e-07
1.0004873e-07
1.0004182e-07
1.0003518e-07
1.000288e-07
1.0002268e-07
1.0001683e-07
1.0001125e-07
1.0000592e-07
1.0000085e-07
9.9996039e-08
9.9991482e-08
9.9987173e-08
9.9983119e-08
9.9979312e-08
9.9975758e-08
9.9972447e-08
9.9969385e-08
9.9966558e-08
9.9963966e-08
9.9961582e-08
9.995939e-08
9.9957335e-08
9.9955385e-08
9.9953975e-08
9.9952943e-08
9.9952076e-08
9.9951525e-08
9.9951197e-08
9.9951254e-08
9.9951492e-08
9.9951925e-08
9.9952544e-08
9.9953354e-08
9.9954345e-08
9.9955525e-08
9.9956885e-08
9.9958433e-08
9.9960159e-08
9.996207e-08
9.9964153e-08
9.9966408e-08
9.9968855e-08
9.997149e-08
9.997429e-08
9.9977268e-08
9.9980416e-08
9.9983743e-08
9.9987225e-08
9.999088e-08
9.9994681e-08
9.9998648e-08
1.0000275e-07
1.0000702e-07
1.000114e-07
1.0001594e-07
1.0002058e-07
1.0002535e-07
1.0003023e-07
1.0003523e-07
1.0004035e-07
1.0004574e-07
1.0005165e-07
1.5205056e-10
4.7735209e-09
2.6831129e-08
5.833344e-08
8.1314529e-08
9.2869168e-08
9.7780228e-08
9.9738863e-08
1.0050308e-07
1.007978e-07
1.0091068e-07
1.0094836e-07
1.0095812e-07
1.0095689e-07
1.009514e-07
1.0094436e-07
1.0093685e-07
1.0092934e-07
1.0092198e-07
1.0091485e-07
1.0090798e-07
1.0090137e-07
1.0089502e-07
1.0088894e-07
1.0088312e-07
1.0087755e-07
1.0087223e-07
1.0086717e-07
1.0086235e-07
1.0085778e-07
1.0085345e-07
1.0084937e-07
1.0084553e-07
1.0084193e-07
1.0083856e-07
1.0083544e-07
1.0083255e-07
1.0082988e-07
1.0082741e-07
1.0082514e-07
1.0082299e-07
1.0082094e-07
1.008194e-07
1.0081823e-07
1.008172e-07
1.0081648e-07
1.0081592e-07
1.0081569e-07
1.0081573e-07
1.0081597e-07
1.0081638e-07
1.0081697e-07
1.0081773e-07
1.0081867e-07
1.0081978e-07
1.0082106e-07
1.0082251e-07
1.0082413e-07
1.0082592e-07
1.0082789e-07
1.0083001e-07
1.008323e-07
1.0083475e-07
1.0083735e-07
1.0084012e-07
1.0084304e-07
1.0084611e-07
1.0084933e-07
1.0085268e-07
1.0085618e-07
1.0085979e-07
1.0086353e-07
1.0086737e-07
1.0087134e-07
1.0087538e-07
1.0087951e-07
1.008837e-07
1.0088798e-07
1.0089233e-07
1.0089689e-07
1.0090196e-07
1.9159186e-10
6.2003424e-09
3.1972272e-08
6.4938391e-08
8.6255016e-08
9.5899697e-08
9.9671654e-08
1.0107756e-07
1.0159417e-07
1.0178277e-07
1.0184806e-07
1.0186668e-07
1.0186843e-07
1.0186389e-07
1.0185707e-07
1.0184955e-07
1.0184191e-07
1.0183441e-07
1.0182712e-07
1.0182009e-07
1.0181331e-07
1.018068e-07
1.0180054e-07
1.0179453e-07
1.0178878e-07
1.0178327e-07
1.0177801e-07
1.0177299e-07
1.0176821e-07
1.0176367e-07
1.0175936e-07
1.0175529e-07
1.0175145e-07
1.0174784e-07
1.0174446e-07
1.0174131e-07
1.0173838e-07
1.0173566e-07
1.0173314e-07
1.0173081e-07
1.017286e-07
1.0172649e-07
1.0172484e-07
1.0172354e-07
1.0172238e-07
1.0172152e-07
1.0172079e-07
1.0172034e-07
1.017201e-07
1.0172017e-07
1.0172039e-07
1.0172078e-07
1.0172132e-07
1.0172204e-07
1.017229e-07
1.0172394e-07
1.0172512e-07
1.0172647e-07
1.0172797e-07
1.0172964e-07
1.0173145e-07
1.0173342e-07
1.0173553e-07
1.0173779e-07
1.0174018e-07
1.0174272e-07
1.0174539e-07
1.0174819e-07
1.017511e-07
1.0175414e-07
1.0175727e-07
1.0176051e-07
1.0176383e-07
1.0176724e-07
1.017707e-07
1.0177423e-07
1.0177777e-07
1.0178136e-07
1.0178496e-07
1.0178873e-07
1.0179299e-07
2.483651e-10
8.0500642e-09
3.7915001e-08
7.1700844e-08
9.0840932e-08
9.8589939e-08
1.0136981e-07
1.0233483e-07
1.0266684e-07
1.0278115e-07
1.0281446e-07
1.0282103e-07
1.0281803e-07
1.0281167e-07
1.0280424e-07
1.0279659e-07
1.0278902e-07
1.0278165e-07
1.0277453e-07
1.0276766e-07
1.0276104e-07
1.0275468e-07
1.0274857e-07
1.027427e-07
1.0273707e-07
1.0273169e-07
1.0272653e-07
1.0272161e-07
1.0271691e-07
1.0271244e-07
1.027082e-07
1.0270418e-07
1.0270038e-07
1.026968e-07
1.0269344e-07
1.026903e-07
1.0268736e-07
1.0268464e-07
1.026821e-07
1.0267974e-07
1.026775e-07
1.0267535e-07
1.0267363e-07
1.0267224e-07
1.0267096e-07
1.0266998e-07
1.0266911e-07
1.0266852e-07
1.0266805e-07
1.0266789e-07
1.0266793e-07
1.0266814e-07
1.0266849e-07
1.02669e-07
1.0266964e-07
1.0267044e-07
1.0267138e-07
1.0267247e-07
1.026737e-07
1.0267508e-07
1.0267659e-07
1.0267825e-07
1.0268003e-07
1.0268196e-07
1.02684e-07
1.0268617e-07
1.0268845e-07
1.0269085e-07
1.0269334e-07
1.0269594e-07
1.0269861e-07
1.0270137e-07
1.0270419e-07
1.0270707e-07
1.0270998e-07
1.0271292e-07
1.0271585e-07
1.0271879e-07
1.0272168e-07
1.0272469e-07
1.0272816e-07
3.3276982e-10
1.0449264e-08
4.4727605e-08
7.8475766e-08
9.5006568e-08
1.009598e-07
1.0291136e-07
1.0353941e-07
1.0374158e-07
1.0380275e-07
1.0381747e-07
1.0381698e-07
1.0381141e-07
1.0380424e-07
1.0379667e-07
1.0378914e-07
1.0378178e-07
1.0377467e-07
1.0376779e-07
1.0376117e-07
1.0375479e-07
1.0374866e-07
1.0374276e-07
1.0373709e-07
1.0373165e-07
1.0372644e-07
1.0372145e-07
1.0371668e-07
1.0371212e-07
1.0370778e-07
1.0370365e-07
1.0369974e-07
1.0369602e-07
1.0369252e-07
1.0368922e-07
1.0368613e-07
1.0368324e-07
1.0368054e-07
1.0367802e-07
1.0367567e-07
1.0367344e-07
1.036713e-07
1.0366952e-07
1.0366807e-07
1.036667e-07
1.0366564e-07
1.0366466e-07
1.0366396e-07
1.0366335e-07
1.03663e-07
1.0366279e-07
1.0366285e-07
1.0366303e-07
1.0366334e-07
1.0366379e-07
1.0366437e-07
1.0366508e-07
1.0366593e-07
1.0366691e-07
1.0366802e-07
1.0366925e-07
1.0367061e-07
1.0367209e-07
1.0367369e-07
1.0367539e-07
1.0367721e-07
1.0367912e-07
1.0368113e-07
1.0368322e-07
1.036854e-07
1.0368764e-07
1.0368994e-07
1.0369228e-07
1.0369467e-07
1.0369704e-07
1.0369944e-07
1.0370178e-07
1.0370412e-07
1.0370635e-07
1.0370865e-07
1.0371136e-07
4.6284765e-10
1.3567735e-08
5.2455254e-08
8.5090158e-08
9.8708486e-08
1.0304323e-07
1.043354e-07
1.0471815e-07
1.0483248e-07
1.0486073e-07
1.0486422e-07
1.0485991e-07
1.048532e-07
1.0484586e-07
1.0483848e-07
1.0483126e-07
1.0482426e-07
1.048175e-07
1.0481097e-07
1.0480469e-07
1.0479863e-07
1.047928e-07
1.0478719e-07
1.047818e-07
1.0477662e-07
1.0477166e-07
1.0476689e-07
1.0476234e-07
1.0475798e-07
1.0475384e-07
1.0474988e-07
1.0474612e-07
1.0474255e-07
1.0473919e-07
1.04736e-07
1.0473301e-07
1.047302e-07
1.0472758e-07
1.0472511e-07
1.0472282e-07
1.0472063e-07
1.0471855e-07
1.0471675e-07
1.0471528e-07
1.0471386e-07
1.0471275e-07
1.0471169e-07
1.0471091e-07
1.0471018e-07
1.0470972e-07
1.0470931e-07
1.0470919e-07
1.047092e-07
1.0470936e-07
1.0470963e-07
1.0471002e-07
1.0471052e-07
1.0471116e-07
1.0471189e-07
1.0471276e-07
1.0471372e-07
1.0471481e-07
1.0471599e-07
1.0471729e-07
1.0471867e-07
1.0472016e-07
1.0472172e-07
1.0472337e-07
1.0472507e-07
1.0472686e-07
1.0472867e-07
1.0473056e-07
1.0473243e-07
1.0473435e-07
1.0473624e-07
1.0473813e-07
1.0473993e-07
1.047417e-07
1.0474333e-07
1.0474498e-07
1.0474698e-07
6.7017743e-10
1.7639934e-08
6.1096487e-08
9.1352387e-08
1.0193109e-07
1.0488583e-07
1.0568148e-07
1.0589782e-07
1.05953e-07
1.0596351e-07
1.059612e-07
1.0595523e-07
1.0594829e-07
1.0594122e-07
1.0593427e-07
1.0592753e-07
1.05921e-07
1.0591471e-07
1.0590864e-07
1.0590279e-07
1.0589714e-07
1.0589172e-07
1.0588648e-07
1.0588146e-07
1.0587662e-07
1.0587199e-07
1.0586753e-07
1.0586328e-07
1.058592e-07
1.0585531e-07
1.0585159e-07
1.0584806e-07
1.058447e-07
1.0584152e-07
1.0583851e-07
1.0583568e-07
1.05833e-07
1.0583051e-07
1.0582816e-07
1.0582597e-07
1.0582388e-07
1.0582189e-07
1.0582012e-07
1.0581867e-07
1.0581724e-07
1.0581612e-07
1.0581502e-07
1.0581419e-07
1.0581338e-07
1.0581284e-07
1.0581233e-07
1.0581207e-07
1.0581186e-07
1.058119e-07
1.0581201e-07
1.0581225e-07
1.0581256e-07
1.05813e-07
1.0581352e-07
1.0581416e-07
1.0581488e-07
1.0581572e-07
1.0581663e-07
1.0581764e-07
1.0581873e-07
1.058199e-07
1.0582113e-07
1.0582245e-07
1.0582379e-07
1.0582521e-07
1.0582663e-07
1.0582811e-07
1.0582957e-07
1.0583105e-07
1.0583248e-07
1.0583391e-07
1.0583522e-07
1.0583648e-07
1.0583758e-07
1.0583865e-07
1.0583998e-07
1.0100767e-09
2.3003359e-08
7.0565305e-08
9.706928e-08
1.0468995e-07
1.0654142e-07
1.0698736e-07
1.0709724e-07
1.0711912e-07
1.0711986e-07
1.0711495e-07
1.0710862e-07
1.0710203e-07
1.0709553e-07
1.070892e-07
1.0708309e-07
1.0707718e-07
1.0707149e-07
1.0706598e-07
1.0706069e-07
1.0705557e-07
1.0705065e-07
1.070459e-07
1.0704134e-07
1.0703694e-07
1.0703273e-07
1.0702868e-07
1.070248e-07
1.0702108e-07
1.0701754e-07
1.0701414e-07
1.0701091e-07
1.0700783e-07
1.0700492e-07
1.0700215e-07
1.0699954e-07
1.0699707e-07
1.0699476e-07
1.0699258e-07
1.0699055e-07
1.0698861e-07
1.0698678e-07
1.069851e-07
1.069837e-07
1.0698232e-07
1.0698122e-07
1.0698013e-07
1.0697929e-07
1.0697846e-07
1.0697787e-07
1.0697729e-07
1.0697695e-07
1.0697661e-07
1.069765e-07
1.0697647e-07
1.0697658e-07
1.0697674e-07
1.0697701e-07
1.0697734e-07
1.0697778e-07
1.0697829e-07
1.0697889e-07
1.0697956e-07
1.0698032e-07
1.0698112e-07
1.0698201e-07
1.0698294e-07
1.0698394e-07
1.0698495e-07
1.0698603e-07
1.069871e-07
1.0698821e-07
1.0698928e-07
1.0699037e-07
1.0699139e-07
1.069924e-07
1.0699327e-07
1.069941e-07
1.0699473e-07
1.0699531e-07
1.0699605e-07
1.5798924e-09
3.0172416e-08
8.063422e-08
1.0207043e-07
1.0703198e-07
1.0806845e-07
1.0828984e-07
1.08335e-07
1.0834088e-07
1.0833755e-07
1.0833207e-07
1.0832619e-07
1.0832034e-07
1.0831465e-07
1.0830914e-07
1.0830382e-07
1.0829868e-07
1.0829372e-07
1.0828893e-07
1.0828431e-07
1.0827985e-07
1.0827556e-07
1.0827142e-07
1.0826744e-07
1.082636e-07
1.0825992e-07
1.0825638e-07
1.0825299e-07
1.0824973e-07
1.0824662e-07
1.0824364e-07
1.082408e-07
1.0823809e-07
1.0823553e-07
1.0823308e-07
1.0823077e-07
1.0822858e-07
1.0822653e-07
1.0822459e-07
1.0822278e-07
1.0822105e-07
1.0821944e-07
1.0821791e-07
1.0821662e-07
1.0821535e-07
1.0821432e-07
1.0821329e-07
1.0821249e-07
1.0821168e-07
1.082111e-07
1.082105e-07
1.0821011e-07
1.0820972e-07
1.0820953e-07
1.0820933e-07
1.0820935e-07
1.0820938e-07
1.0820951e-07
1.082097e-07
1.0820997e-07
1.0821029e-07
1.0821069e-07
1.0821114e-07
1.0821167e-07
1.0821223e-07
1.0821286e-07
1.0821352e-07
1.0821423e-07
1.0821495e-07
1.0821571e-07
1.0821646e-07
1.0821724e-07
1.0821798e-07
1.0821872e-07
1.0821938e-07
1.0822003e-07
1.0822054e-07
1.08221e-07
1.0822126e-07
1.0822144e-07
1.0822168e-07
2.5527505e-09
3.9996434e-08
9.0863434e-08
1.0623964e-07
1.0903241e-07
1.0952539e-07
1.0961685e-07
1.0963026e-07
1.0962899e-07
1.0962463e-07
1.096197e-07
1.0961477e-07
1.0960996e-07
1.096053e-07
1.096008e-07
1.0959645e-07
1.0959225e-07
1.095882e-07
1.0958428e-07
1.095805e-07
1.0957686e-07
1.0957334e-07
1.0956995e-07
1.0956669e-07
1.0956354e-07
1.0956052e-07
1.0955761e-07
1.0955483e-07
1.0955215e-07
1.0954959e-07
1.0954713e-07
1.0954479e-07
1.0954255e-07
1.0954043e-07
1.095384e-07
1.0953649e-07
1.0953466e-07
1.0953296e-07
1.0953133e-07
1.0952982e-07
1.0952838e-07
1.0952704e-07
1.0952576e-07
1.0952464e-07
1.0952354e-07
1.0952266e-07
1.0952175e-07
1.0952105e-07
1.0952031e-07
1.0951978e-07
1.0951921e-07
1.0951884e-07
1.0951843e-07
1.0951821e-07
1.0951795e-07
1.0951788e-07
1.0951779e-07
1.0951784e-07
1.0951791e-07
1.0951804e-07
1.0951821e-07
1.0951845e-07
1.0951871e-07
1.0951905e-07
1.0951939e-07
1.0951981e-07
1.0952022e-07
1.0952069e-07
1.0952115e-07
1.0952165e-07
1.0952211e-07
1.0952261e-07
1.0952305e-07
1.0952351e-07
1.0952387e-07
1.0952423e-07
1.0952445e-07
1.0952464e-07
1.0952462e-07
1.0952452e-07
1.0952439e-07
4.2199848e-09
5.404538e-08
1.0053868e-07
1.0954668e-07
1.1078784e-07
1.1096844e-07
1.1099464e-07
1.1099602e-07
1.109931e-07
1.1098943e-07
1.1098573e-07
1.1098211e-07
1.1097861e-07
1.1097522e-07
1.1097195e-07
1.1096879e-07
1.1096574e-07
1.1096279e-07
1.1095994e-07
1.1095719e-07
1.1095454e-07
1.1095198e-07
1.109495e-07
1.1094713e-07
1.1094483e-07
1.1094262e-07
1.109405e-07
1.1093846e-07
1.109365e-07
1.1093462e-07
1.1093282e-07
1.1093111e-07
1.1092945e-07
1.109279e-07
1.109264e-07
1.1092499e-07
1.1092363e-07
1.1092237e-07
1.1092116e-07
1.1092004e-07
1.1091896e-07
1.1091798e-07
1.1091703e-07
1.1091618e-07
1.1091533e-07
1.1091466e-07
1.1091394e-07
1.1091341e-07
1.1091281e-07
1.109124e-07
1.1091192e-07
1.1091162e-07
1.1091125e-07
1.1091106e-07
1.1091079e-07
1.109107e-07
1.1091054e-07
1.1091054e-07
1.1091051e-07
1.1091056e-07
1.1091061e-07
1.1091072e-07
1.1091084e-07
1.1091101e-07
1.1091119e-07
1.1091141e-07
1.1091163e-07
1.1091189e-07
1.1091213e-07
1.109124e-07
1.1091265e-07
1.1091291e-07
1.1091312e-07
1.1091334e-07
1.1091348e-07
1.1091362e-07
1.1091364e-07
1.1091364e-07
1.1091346e-07
1.1091322e-07
1.1091289e-07
7.0296105e-09
7.5653336e-08
1.0863257e-07
1.1206403e-07
1.1240453e-07
1.1244328e-07
1.1244647e-07
1.1244506e-07
1.1244302e-07
1.1244092e-07
1.1243888e-07
1.1243689e-07
1.12435e-07
1.1243314e-07
1.1243136e-07
1.1242963e-07
1.1242797e-07
1.1242635e-07
1.124248e-07
1.1242329e-07
1.1242185e-07
1.1242044e-07
1.1241909e-07
1.1241778e-07
1.1241653e-07
1.1241531e-07
1.1241415e-07
1.1241302e-07
1.1241195e-07
1.1241091e-07
1.1240993e-07
1.1240898e-07
1.1240807e-07
1.124072e-07
1.1240638e-07
1.1240559e-07
1.1240485e-07
1.1240414e-07
1.1240347e-07
1.1240284e-07
1.1240224e-07
1.1240168e-07
1.1240115e-07
1.1240068e-07
1.1240021e-07
1.123998e-07
1.1239939e-07
1.1239909e-07
1.1239873e-07
1.1239849e-07
1.1239819e-07
1.1239801e-07
1.1239777e-07
1.1239766e-07
1.1239746e-07
1.1239741e-07
1.1239726e-07
1.1239725e-07
1.1239717e-07
1.1239719e-07
1.1239716e-07
1.1239721e-07
1.1239722e-07
1.1239729e-07
1.1239733e-07
1.1239743e-07
1.1239749e-07
1.123976e-07
1.1239767e-07
1.1239779e-07
1.1239785e-07
1.1239796e-07
1.1239799e-07
1.1239807e-07
1.1239807e-07
1.123981e-07
1.1239802e-07
1.1239796e-07
1.1239776e-07
1.1239756e-07
1.1239724e-07
8.5280733e-08
8.5285145e-08
8.5284356e-08
8.5277859e-08
8.5269773e-08
8.5260444e-08
8.5250905e-08
8.5241226e-08
8.5231592e-08
8.5222046e-08
8.5212638e-08
8.5203378e-08
8.5194287e-08
8.5185365e-08
8.5176628e-08
8.516807e-08
8.515971e-08
8.5151537e-08
8.514357e-08
8.5135798e-08
8.5128235e-08
8.5120871e-08
8.511372e-08
8.510677e-08
8.5100036e-08
8.5093509e-08
8.5087209e-08
8.5081134e-08
8.5075314e-08
8.5069761e-08
8.5064516e-08
8.5059607e-08
8.5055086e-08
8.505099e-08
8.5047366e-08
8.5044253e-08
8.5041705e-08
8.5039755e-08
8.5038426e-08
8.5037719e-08
8.5037623e-08
8.5038114e-08
8.5039177e-08
8.5040793e-08
8.5042949e-08
8.5045619e-08
8.5048762e-08
8.5052308e-08
8.5056141e-08
8.5060071e-08
8.5063779e-08
8.5066716e-08
8.5067938e-08
8.5065823e-08
8.5057633e-08
8.5038821e-08
8.5002002e-08
8.493542e-08
8.4820778e-08
8.4630217e-08
8.43223e-08
8.3836884e-08
8.3089013e-08
8.1962379e-08
8.03037e-08
7.7920674e-08
7.4588072e-08
7.0068865e-08
6.4158461e-08
5.6757763e-08
4.7969932e-08
3.8192829e-08
2.8149791e-08
1.8791222e-08
1.1045389e-08
5.5023295e-09
2.20314e-09
6.7419075e-10
1.9458203e-10
1.3650347e-10
1.7015864e-10
8.5497146e-08
8.5501912e-08
8.5500756e-08
8.5494011e-08
8.5485636e-08
8.5476214e-08
8.5466564e-08
8.5456792e-08
8.5447076e-08
8.5437458e-08
8.5427986e-08
8.5418666e-08
8.5409522e-08
8.5400551e-08
8.539177e-08
8.5383173e-08
8.5374777e-08
8.5366574e-08
8.5358581e-08
8.5350787e-08
8.5343207e-08
8.533583e-08
8.532867e-08
8.5321716e-08
8.5314982e-08
8.5308459e-08
8.5302167e-08
8.5296104e-08
8.5290299e-08
8.5284763e-08
8.5279536e-08
8.5274647e-08
8.5270145e-08
8.5266066e-08
8.5262459e-08
8.525935e-08
8.5256793e-08
8.5254827e-08
8.525348e-08
8.5252752e-08
8.5252634e-08
8.5253101e-08
8.5254135e-08
8.525572e-08
8.5257841e-08
8.5260476e-08
8.5263588e-08
8.5267112e-08
8.5270949e-08
8.5274928e-08
8.5278773e-08
8.5282006e-08
8.5283801e-08
8.5282741e-08
8.5276418e-08
8.5260811e-08
8.5229344e-08
8.5171482e-08
8.5070705e-08
8.4901668e-08
8.4626349e-08
8.4189057e-08
8.3510312e-08
8.2480017e-08
8.0951027e-08
7.8735505e-08
7.5608336e-08
7.1324348e-08
6.5658013e-08
5.847328e-08
4.9821984e-08
4.0047603e-08
2.983858e-08
2.0156018e-08
1.1995352e-08
6.0486729e-09
2.4457629e-09
7.458343e-10
2.0000232e-10
1.2582454e-10
1.5487444e-10
8.5725032e-08
8.5730124e-08
8.5728587e-08
8.5721554e-08
8.5712944e-08
8.5703403e-08
8.5693627e-08
8.5683757e-08
8.5673957e-08
8.5664266e-08
8.5654729e-08
8.5645351e-08
8.5636154e-08
8.5627135e-08
8.5618311e-08
8.5609676e-08
8.5601247e-08
8.5593016e-08
8.5584999e-08
8.5577185e-08
8.5569591e-08
8.5562204e-08
8.5555039e-08
8.5548084e-08
8.5541353e-08
8.5534839e-08
8.5528558e-08
8.5522512e-08
8.5516725e-08
8.5511211e-08
8.5506008e-08
8.5501143e-08
8.5496663e-08
8.5492606e-08
8.5489017e-08
8.5485926e-08
8.5483367e-08
8.5481389e-08
8.5480027e-08
8.5479282e-08
8.5479143e-08
8.5479587e-08
8.5480595e-08
8.5482148e-08
8.5484234e-08
8.5486831e-08
8.5489908e-08
8.5493406e-08
8.5497237e-08
8.5501252e-08
8.5505211e-08
8.5508698e-08
8.5511001e-08
8.5510887e-08
8.5506254e-08
8.5493569e-08
8.546702e-08
8.5417226e-08
8.5329369e-08
8.5180531e-08
8.4936036e-08
8.454461e-08
8.3932316e-08
8.29955e-08
8.1593684e-08
7.9544436e-08
7.6624179e-08
7.2581462e-08
6.7171763e-08
6.0223148e-08
5.1734904e-08
4.199115e-08
3.1636763e-08
2.1634389e-08
1.304286e-08
6.6621203e-09
2.7234655e-09
8.3031211e-10
2.086373e-10
1.1652876e-10
1.4134072e-10
8.5965127e-08
8.5970488e-08
8.596854e-08
8.5961201e-08
8.5952384e-08
8.5942694e-08
8.5932787e-08
8.592282e-08
8.5912937e-08
8.5903175e-08
8.5893575e-08
8.5884141e-08
8.5874893e-08
8.5865828e-08
8.5856963e-08
8.5848292e-08
8.5839832e-08
8.5831575e-08
8.5823537e-08
8.5815707e-08
8.5808101e-08
8.5800707e-08
8.5793538e-08
8.5786586e-08
8.5779861e-08
8.5773358e-08
8.5767093e-08
8.5761066e-08
8.5755301e-08
8.5749813e-08
8.5744636e-08
8.5739798e-08
8.5735345e-08
8.5731312e-08
8.5727744e-08
8.5724671e-08
8.5722123e-08
8.5720137e-08
8.5718761e-08
8.5718001e-08
8.5717844e-08
8.5718267e-08
8.5719248e-08
8.572077e-08
8.5722821e-08
8.572538e-08
8.5728419e-08
8.5731887e-08
8.5735705e-08
8.5739743e-08
8.5743794e-08
8.5747501e-08
8.575025e-08
8.5750978e-08
8.5747863e-08
8.5737826e-08
8.5715764e-08
8.5673385e-08
8.5597486e-08
8.546748e-08
8.5251944e-08
8.4903961e-08
8.4355154e-08
8.3508504e-08
8.2230668e-08
8.0345511e-08
7.7632435e-08
7.3835696e-08
6.8694007e-08
6.2001135e-08
5.3703237e-08
4.4020549e-08
3.3545467e-08
2.3231708e-08
1.4195811e-08
7.3501942e-09
3.0411652e-09
9.2966274e-10
2.2085278e-10
1.0844279e-10
1.2915506e-10
8.6218224e-08
8.6223786e-08
8.622138e-08
8.6213747e-08
8.6204706e-08
8.6194854e-08
8.6184818e-08
8.6174754e-08
8.616479e-08
8.615496e-08
8.6145299e-08
8.613581e-08
8.6126514e-08
8.6117405e-08
8.6108502e-08
8.6099799e-08
8.609131e-08
8.608303e-08
8.6074973e-08
8.606713e-08
8.6059515e-08
8.6052117e-08
8.604495e-08
8.6038002e-08
8.6031287e-08
8.6024799e-08
8.6018552e-08
8.6012549e-08
8.600681e-08
8.6001351e-08
8.5996204e-08
8.5991398e-08
8.5986974e-08
8.5982969e-08
8.5979425e-08
8.5976372e-08
8.5973841e-08
8.5971853e-08
8.5970467e-08
8.5969692e-08
8.596952e-08
8.5969922e-08
8.5970878e-08
8.5972369e-08
8.5974383e-08
8.5976903e-08
8.5979902e-08
8.5983335e-08
8.5987133e-08
8.5991184e-08
8.5995307e-08
8.5999199e-08
8.6002335e-08
8.6003806e-08
8.6002046e-08
8.5994392e-08
8.5976401e-08
8.5940796e-08
8.5875905e-08
8.5763366e-08
8.5574897e-08
8.5267857e-08
8.4779417e-08
8.4019337e-08
8.2861829e-08
8.1137912e-08
7.86314e-08
7.5084339e-08
7.0221151e-08
6.3803359e-08
5.5724012e-08
4.6135426e-08
3.5568398e-08