/*--------------------------------*- C++ -*----------------------------------*\
| =========                 |                                                 |
| \\      /  F ield         | OpenFOAM: The Open Source CFD Toolbox           |
|  \\    /   O peration     | Version:  v2006                                 |
|   \\  /    A nd           | Website:  www.openfoam.com                      |
|    \\/     M anipulation  |                                                 |
\*---------------------------------------------------------------------------*/
FoamFile
{
    version     2.0;
    format      ascii;
    class       volScalarField;
    location    "5000";
    object      omega;
}
// * * * * * * * * * * * * * * * * * * * * * * * * * * * * * * * * * * * * * //

dimensions      [0 0 -1 0 0 0 0];


internalField   nonuniform List<scalar> 
102907
(
15.259262
3.0633387
1.2163613
0.6710264
0.45308016
0.35288993
0.30365193
0.27864386
0.26573341
0.25901231
0.25549207
0.25363278
0.25263495
0.2520832
0.25176209
0.25156047
0.25142111
0.25131487
0.25122681
0.25114948
0.25107901
0.25101356
0.25095212
0.25089427
0.25083971
0.25078841
0.25074023
0.25069525
0.25065339
0.25061474
0.25057924
0.25054699
0.25051794
0.25049219
0.25046965
0.25045041
0.2504343
0.25042138
0.25041138
0.25040429
0.25039997
0.25040019
0.25040571
0.25041597
0.25043016
0.25044797
0.25046908
0.25049343
0.25052085
0.25055142
0.25058503
0.25062174
0.25066149
0.25070437
0.25075028
0.25079935
0.25085148
0.25090679
0.25096522
0.25102687
0.2510917
0.25115983
0.25123123
0.25130603
0.25138424
0.25146599
0.25155135
0.25164046
0.25173345
0.25183049
0.25193176
0.25203749
0.25214793
0.2522634
0.25238422
0.25251087
0.25264389
0.25278401
0.25293223
0.25309004
0.25325977
14.321921
2.8911821
1.1552513
0.64287052
0.43973527
0.34772855
0.3033603
0.28129486
0.27014841
0.26446666
0.26154624
0.26002561
0.25921463
0.25876338
0.25849458
0.25831886
0.25819117
0.25808906
0.25800121
0.25792209
0.25784886
0.25778019
0.25771535
0.25765405
0.25759607
0.25754137
0.25748988
0.25744161
0.25739655
0.25735474
0.25731616
0.25728087
0.25724884
0.25722014
0.25719471
0.25717259
0.25715368
0.25713793
0.25712515
0.2571152
0.2571079
0.25710412
0.25710748
0.25711519
0.25712682
0.25714198
0.25716045
0.25718209
0.25720683
0.25723466
0.25726552
0.25729945
0.25733642
0.25737645
0.25741952
0.25746567
0.25751488
0.25756719
0.2576226
0.25768115
0.25774284
0.25780773
0.25787583
0.25794723
0.25802193
0.25810005
0.25818162
0.2582668
0.25835566
0.25844838
0.25854507
0.25864598
0.25875126
0.25886123
0.25897613
0.2590964
0.25922248
0.25935507
0.25949505
0.25964393
0.25980401
13.46636
2.7330748
1.098775
0.61706216
0.4280072
0.343837
0.30409879
0.28478678
0.27525676
0.27050529
0.26810863
0.26687638
0.26622049
0.2658504
0.26562248
0.26546611
0.26534641
0.26524643
0.26515771
0.26507627
0.26499998
0.26492799
0.26485968
0.26479493
0.2647335
0.26467543
0.26462061
0.26456911
0.26452085
0.26447592
0.26443424
0.26439593
0.2643609
0.26432927
0.26430093
0.26427596
0.26425421
0.26423567
0.26422008
0.2642073
0.26419694
0.26418898
0.2641901
0.26419544
0.26420447
0.26421695
0.26423275
0.26425167
0.26427366
0.26429873
0.26432678
0.2643579
0.264392
0.26442916
0.26446929
0.26451249
0.26455868
0.26460796
0.26466025
0.26471565
0.2647741
0.2648357
0.26490041
0.26496833
0.26503943
0.26511383
0.26519154
0.26527269
0.26535734
0.26544563
0.26553767
0.26563364
0.26573368
0.26583803
0.26594693
0.2660607
0.26617976
0.2663047
0.26643635
0.2665762
0.26672662
12.683395
2.587529
1.0464613
0.59344122
0.41785469
0.34121274
0.30587419
0.28912821
0.28106901
0.27714223
0.27519762
0.27420755
0.27367835
0.27337254
0.27317585
0.2730334
0.27291877
0.27281934
0.27272898
0.27264479
0.27256531
0.27248989
0.27241814
0.27234992
0.27228511
0.27222368
0.2721656
0.27211086
0.27205945
0.27201139
0.27196669
0.27192535
0.27188739
0.2718528
0.2718216
0.27179375
0.2717692
0.27174784
0.27172951
0.27171392
0.27170071
0.2716894
0.27168584
0.27168951
0.27169652
0.27170622
0.2717194
0.2717355
0.27175476
0.27177697
0.27180224
0.27183045
0.27186167
0.27189585
0.27193304
0.27197319
0.27201634
0.27206247
0.27211162
0.27216376
0.27221895
0.27227713
0.27233841
0.27240272
0.27247017
0.27254074
0.27261452
0.27269153
0.2727719
0.27285564
0.27294294
0.27303385
0.27312857
0.27322719
0.27332999
0.27343715
0.27354909
0.27366626
0.2737895
0.2739202
0.27406089
11.965087
2.4531716
0.99786424
0.57186704
0.40925048
0.33986139
0.30869774
0.29433085
0.28759885
0.28439519
0.28283558
0.28204586
0.28161833
0.2813624
0.28118887
0.28105599
0.28094411
0.28084407
0.28075148
0.28066432
0.28058154
0.28050272
0.28042754
0.28035594
0.28028778
0.28022309
0.28016177
0.28010389
0.28004937
0.27999827
0.27995055
0.27990625
0.27986536
0.27982789
0.27979383
0.27976316
0.27973581
0.27971169
0.2796906
0.27967227
0.27965629
0.27964219
0.2796334
0.27963469
0.27963937
0.27964706
0.27965766
0.27967091
0.27968741
0.27970676
0.27972916
0.27975445
0.27978273
0.27981392
0.27984808
0.27988514
0.27992517
0.27996811
0.28001403
0.28006285
0.28011467
0.28016938
0.28022712
0.28028776
0.28035147
0.28041812
0.28048788
0.28056065
0.28063664
0.28071574
0.28079821
0.28088395
0.28097325
0.28106603
0.28116264
0.28126306
0.2813678
0.28147708
0.28159181
0.28171323
0.28184418
11.304556
2.3287841
0.95258319
0.55222984
0.40218743
0.33979953
0.31258659
0.30041054
0.29486413
0.29228648
0.2910499
0.29042307
0.29007554
0.28985737
0.28970046
0.28957369
0.28946285
0.28936136
0.2892662
0.28917593
0.28908989
0.2890077
0.28892921
0.2888543
0.28878293
0.28871503
0.28865061
0.28858963
0.28853212
0.28847802
0.2884274
0.28838019
0.28833646
0.28829614
0.2882593
0.28822583
0.28819576
0.28816887
0.28814511
0.28812404
0.28810538
0.28808849
0.28807612
0.2880731
0.28807533
0.28808046
0.2880887
0.28809968
0.28811353
0.28812991
0.28814949
0.28817177
0.28819712
0.28822523
0.28825634
0.28829024
0.28832712
0.28836678
0.28840942
0.28845483
0.28850323
0.28855438
0.28860851
0.28866539
0.28872527
0.28878791
0.28885356
0.288922
0.28899351
0.28906787
0.2891454
0.28922588
0.28930965
0.28939649
0.2894868
0.28958039
0.28967781
0.28977909
0.28988521
0.28999727
0.29011841
10.695809
2.2132529
0.9102496
0.53444852
0.39667722
0.34105351
0.31756308
0.30738734
0.30288747
0.30084385
0.29987374
0.2993768
0.29909083
0.29890046
0.298755
0.29863172
0.29852068
0.29841718
0.29831931
0.29822592
0.29813672
0.29805127
0.29796963
0.29789154
0.29781712
0.29774614
0.29767878
0.29761482
0.29755445
0.29749746
0.29744405
0.29739401
0.29734756
0.29730446
0.29726494
0.29722873
0.29719602
0.29716643
0.29714005
0.2971163
0.29709502
0.29707541
0.2970605
0.29705284
0.29705179
0.29705423
0.29705988
0.29706822
0.29707964
0.2970936
0.29711047
0.29712964
0.29715208
0.29717703
0.29720509
0.29723576
0.29726943
0.29730575
0.29734506
0.29738698
0.2974319
0.29747939
0.29752985
0.29758287
0.29763885
0.29769737
0.29775884
0.29782283
0.29788979
0.29795929
0.2980318
0.29810689
0.29818504
0.29826583
0.29834974
0.29843639
0.2985264
0.29861958
0.29871699
0.29881959
0.29893089
10.13361
2.1055358
0.87052326
0.51847317
0.3927511
0.34365911
0.32365466
0.31528611
0.31169704
0.31010142
0.30934687
0.30895133
0.30871152
0.30854102
0.30840298
0.30828134
0.30816925
0.30806352
0.30796288
0.30786653
0.3077743
0.30768585
0.30760122
0.30752019
0.30744288
0.30736906
0.30729889
0.30723217
0.30716907
0.30710938
0.30705331
0.30700061
0.30695154
0.30690582
0.3068637
0.30682489
0.3067896
0.30675743
0.30672851
0.30670219
0.30667835
0.30665615
0.30663876
0.30662815
0.30662231
0.30662172
0.30662478
0.30663044
0.30663918
0.30665043
0.3066647
0.30668139
0.30670098
0.30672273
0.30674768
0.30677512
0.3068055
0.30683846
0.30687435
0.30691274
0.30695409
0.30699789
0.30704456
0.30709366
0.30714563
0.30719998
0.30725714
0.30731663
0.3073789
0.30744348
0.30751084
0.30758047
0.30765288
0.30772753
0.30780494
0.30788456
0.30796705
0.30805205
0.30814064
0.30823372
0.30833517
9.6133686
2.0046317
0.83309113
0.50428801
0.39046028
0.34766079
0.33089393
0.324137
0.32132775
0.32010065
0.31951685
0.31919848
0.31899244
0.31883557
0.31870211
0.3185808
0.31846729
0.31835924
0.31825604
0.31815693
0.31806199
0.31797076
0.31788348
0.31779974
0.31771984
0.31764339
0.31757071
0.31750142
0.31743585
0.31737364
0.31731513
0.31725994
0.31720845
0.31716025
0.31711572
0.31707444
0.31703673
0.3170021
0.31697077
0.31694199
0.31691573
0.31689105
0.31687129
0.31685787
0.31684917
0.31684341
0.31684397
0.31684696
0.31685303
0.31686151
0.31687301
0.31688685
0.31690366
0.31692277
0.31694478
0.31696894
0.31699597
0.31702555
0.31705797
0.31709276
0.31713048
0.31717051
0.31721332
0.31725844
0.31730632
0.31735641
0.31740917
0.31746406
0.31752156
0.31758112
0.31764323
0.31770731
0.31777388
0.3178423
0.31791311
0.31798562
0.3180605
0.31813725
0.31821695
0.31830045
0.31839209
9.1310475
1.9095241
0.79766608
0.49191545
0.38987582
0.35311139
0.33931885
0.33397698
0.33182249
0.33089208
0.33044013
0.33017907
0.32999693
0.3298492
0.32971825
0.32959665
0.32948154
0.32937144
0.32926591
0.32916446
0.32906712
0.32897356
0.32888392
0.32879791
0.3287157
0.32863701
0.32856207
0.32849058
0.32842278
0.32835837
0.32829764
0.32824026
0.32818654
0.32813614
0.32808937
0.32804585
0.32800589
0.327969
0.32793539
0.32790436
0.32787582
0.32784885
0.32782681
0.32781071
0.32779936
0.32779033
0.32778634
0.32778669
0.32779014
0.32779595
0.32780467
0.32781567
0.32782955
0.32784568
0.32786466
0.32788588
0.32790991
0.32793612
0.32796501
0.32799616
0.32803019
0.32806642
0.32810528
0.32814635
0.32819005
0.32823582
0.32828409
0.32833431
0.32838694
0.32844139
0.32849816
0.32855661
0.32861724
0.32867936
0.32874349
0.32880882
0.32887602
0.32894446
0.32901523
0.3290891
0.32917102
8.6830856
1.8191412
0.76399536
0.4814214
0.39108882
0.360071
0.34897344
0.34485079
0.34323398
0.34253639
0.34218362
0.34196396
0.34179837
0.34165657
0.341527
0.34140487
0.34128841
0.34117662
0.34106928
0.34096597
0.34086676
0.34077134
0.34067984
0.34059198
0.34050794
0.34042742
0.34035065
0.34027732
0.34020769
0.34014143
0.34007884
0.34001959
0.33996396
0.33991163
0.33986291
0.33981741
0.33977544
0.33973654
0.33970089
0.33966781
0.3396372
0.33960818
0.33958402
0.33956538
0.33955154
0.3395398
0.33953261
0.33952839
0.33952943
0.33953264
0.33953865
0.33954687
0.33955786
0.33957102
0.33958692
0.33960498
0.33962577
0.33964869
0.33967432
0.33970203
0.3397324
0.33976476
0.33979961
0.33983656
0.33987603
0.33991739
0.33996111
0.34000657
0.34005425
0.34010352
0.34015487
0.34020759
0.34026222
0.34031796
0.34037535
0.34043344
0.34049294
0.34055304
0.34061488
0.34067911
0.3407515
8.2663354
1.7322972
0.73187038
0.47292096
0.39420914
0.36860668
0.35990882
0.35681334
0.35562666
0.3551067
0.35482645
0.35463596
0.35448171
0.35434387
0.35421525
0.35409278
0.35397549
0.35386262
0.35375414
0.35364962
0.35354921
0.35345254
0.35335981
0.35327069
0.35318539
0.35310357
0.3530255
0.35295083
0.35287985
0.3528122
0.3527482
0.35268748
0.35263037
0.35257648
0.35252618
0.35247904
0.3524354
0.35239476
0.35235738
0.35232254
0.35229016
0.35225935
0.35223333
0.35221231
0.35219621
0.35218193
0.35217224
0.35216442
0.35216169
0.35216229
0.35216573
0.35217125
0.35217944
0.35218967
0.35220257
0.35221747
0.35223504
0.35225458
0.35227677
0.35230089
0.3523276
0.35235616
0.35238726
0.35242008
0.35245534
0.35249218
0.35253134
0.3525719
0.35261465
0.35265858
0.35270452
0.35275139
0.35280003
0.35284927
0.35289997
0.35295083
0.35300279
0.35305449
0.35310737
0.35316172
0.35322472
7.878012
1.6476267
0.70114693
0.46658468
0.39936401
0.37879203
0.37218506
0.36993198
0.36907917
0.36869053
0.36846193
0.36829174
0.36814548
0.3680107
0.3678832
0.36776102
0.3676437
0.36753062
0.36742186
0.36731699
0.3672162
0.3671191
0.36702591
0.36693627
0.36685043
0.36676801
0.36668931
0.36661395
0.36654223
0.36647378
0.36640892
0.36634728
0.36628919
0.36623425
0.36618283
0.36613449
0.36608959
0.36604764
0.3660089
0.36597266
0.36593888
0.36590666
0.36587907
0.36585592
0.36583782
0.36582121
0.36580934
0.36579891
0.36579298
0.36578952
0.3657907
0.36579366
0.36579918
0.36580659
0.36581656
0.36582838
0.36584277
0.36585898
0.36587776
0.36589829
0.36592133
0.36594604
0.3659732
0.36600188
0.3660329
0.36606527
0.36609985
0.36613557
0.36617333
0.36621198
0.36625246
0.36629352
0.36633614
0.36637892
0.3664229
0.36646652
0.36651086
0.36655426
0.36659827
0.36664276
0.36669609
7.5156515
1.563506
0.67177472
0.46264416
0.40669541
0.39070739
0.38587384
0.38428978
0.38368729
0.38339268
0.38320017
0.38304437
0.38290437
0.38277267
0.38264705
0.38252618
0.38240996
0.38229778
0.38218988
0.38208573
0.38198564
0.3818891
0.38179646
0.38170723
0.38162179
0.38153962
0.38146116
0.38138589
0.38131424
0.38124571
0.38118075
0.38111884
0.38106046
0.38100506
0.38095316
0.38090416
0.38085858
0.38081579
0.38077621
0.38073902
0.38070434
0.38067114
0.38064242
0.38061744
0.38059774
0.38057904
0.38056536
0.38055258
0.38054447
0.38053743
0.38053547
0.38053586
0.38053893
0.38054364
0.38055086
0.38055967
0.38057104
0.38058394
0.38059941
0.38061634
0.38063582
0.38065662
0.38067992
0.38070439
0.38073125
0.38075905
0.38078912
0.38081989
0.38085276
0.38088599
0.38092112
0.38095624
0.38099295
0.38102919
0.3810666
0.38110293
0.38113991
0.38117505
0.38121048
0.38124517
0.38128873
7.1770815
1.4779613
0.64384013
0.4613958
0.41635665
0.40444094
0.40106204
0.3999893
0.39956732
0.3993382
0.39917105
0.39902629
0.39889225
0.39876447
0.39864206
0.39852392
0.39841031
0.39830048
0.39819489
0.39809281
0.39799477
0.39790006
0.39780924
0.3977216
0.39763773
0.39755691
0.39747979
0.3974056
0.39733506
0.39726736
0.39720325
0.39714191
0.39708412
0.39702902
0.39697744
0.39692847
0.39688296
0.39683993
0.3968002
0.39676259
0.39672767
0.39669403
0.39666474
0.39663835
0.39661754
0.3965971
0.39658206
0.39656722
0.39655745
0.39654795
0.39654335
0.39653984
0.39654099
0.39654315
0.39654789
0.39655376
0.39656234
0.39657196
0.39658432
0.39659766
0.39661372
0.39663061
0.39665018
0.3966704
0.39669319
0.39671638
0.39674202
0.39676779
0.39679582
0.39682362
0.39685345
0.39688265
0.39691353
0.3969433
0.39697426
0.39700346
0.39703324
0.39706041
0.39708756
0.39711281
0.3971465
6.8604064
1.3885707
0.61762561
0.46320163
0.42850825
0.42009152
0.41785684
0.4171574
0.41686054
0.41667651
0.41652813
0.41639334
0.4162661
0.41614394
0.41602655
0.41591314
0.41580398
0.41569842
0.41559688
0.41549868
0.41540433
0.41531313
0.41522564
0.41514115
0.41506028
0.41498226
0.41490779
0.41483605
0.41476781
0.41470221
0.41464006
0.41458045
0.41452428
0.41447055
0.41442022
0.41437226
0.41432766
0.41428529
0.41424617
0.41420896
0.41417451
0.41414124
0.41411194
0.41408489
0.41406344
0.41404188
0.41402591
0.41400956
0.41399849
0.41398711
0.41398073
0.41397415
0.41397267
0.4139724
0.41397492
0.41397811
0.41398407
0.41399065
0.41400003
0.41400996
0.41402267
0.41403581
0.41405167
0.41406779
0.41408651
0.41410525
0.41412642
0.41414735
0.4141705
0.41419305
0.41421755
0.41424105
0.41426611
0.41428967
0.41431427
0.41433669
0.41435947
0.41437918
0.41439846
0.4144149
0.4144388
6.5640072
1.2923669
0.59369046
0.46848325
0.4433134
0.43777318
0.43639194
0.43595086
0.43573797
0.43558585
0.43545339
0.43532932
0.43521095
0.43509681
0.434987
0.43488079
0.43477855
0.43467959
0.43458441
0.43449228
0.43440378
0.43431813
0.434236
0.43415657
0.43408056
0.43400712
0.43393704
0.43386941
0.43380508
0.43374311
0.4336844
0.43362796
0.43357474
0.43352371
0.43347587
0.43343013
0.43338756
0.43334697
0.43330946
0.43327367
0.43324059
0.4332087
0.43318014
0.43315343
0.43313189
0.4331101
0.4330937
0.43307662
0.43306469
0.43305212
0.43304444
0.43303616
0.43303264
0.43302894
0.43302979
0.4330307
0.43303425
0.43303815
0.4330447
0.43305151
0.43306102
0.43307063
0.43308291
0.4330951
0.43310986
0.43312428
0.4331411
0.4331573
0.43317571
0.43319314
0.43321248
0.43323044
0.43324992
0.43326751
0.43328608
0.43330208
0.43331837
0.43333115
0.43334334
0.4333517
0.43336637
6.2865664
1.1857673
0.57297842
0.47770995
0.46093473
0.4576219
0.45683551
0.45656356
0.45640676
0.45627982
0.45616344
0.45605259
0.45594616
0.45584339
0.45574439
0.45564861
0.45555634
0.45546704
0.45538109
0.45529787
0.45521789
0.45514047
0.45506618
0.4549943
0.45492547
0.45485893
0.4547954
0.45473402
0.45467562
0.45461927
0.45456588
0.45451443
0.45446591
0.45441925
0.45437551
0.45433353
0.45429445
0.45425702
0.45422246
0.45418933
0.45415883
0.45412946
0.45410283
0.45407756
0.45405688
0.4540358
0.45401985
0.45400284
0.45399082
0.45397778
0.45396949
0.45396019
0.45395544
0.45394977
0.45394857
0.4539472
0.45394883
0.4539505
0.45395448
0.45395856
0.45396505
0.45397151
0.45398033
0.45398896
0.45399981
0.45401028
0.45402279
0.45403466
0.45404834
0.45406108
0.45407532
0.45408824
0.45410229
0.45411449
0.45412736
0.45413763
0.45414796
0.45415475
0.45416075
0.45416233
0.45416861
6.0271333
1.0645244
0.55694366
0.49136813
0.48153246
0.47980658
0.479401
0.47923471
0.47911814
0.47901491
0.47891746
0.47882385
0.47873371
0.47864659
0.4785626
0.47848133
0.478403
0.47832716
0.47825414
0.47818342
0.47811542
0.47804956
0.47798635
0.47792515
0.47786652
0.4778098
0.47775561
0.47770322
0.47765333
0.47760515
0.47755945
0.47751536
0.47747374
0.47743364
0.47739602
0.47735981
0.47732607
0.47729366
0.47726371
0.4772349
0.47720843
0.47718297
0.47715991
0.47713758
0.47711888
0.4770998
0.47708541
0.47706957
0.47705849
0.4770459
0.47703795
0.47702839
0.47702336
0.47701674
0.47701455
0.47701081
0.47701122
0.47701087
0.47701297
0.47701452
0.47701868
0.47702205
0.47702811
0.47703314
0.47704082
0.47704723
0.47705618
0.47706358
0.47707335
0.47708127
0.47709132
0.47709914
0.47710877
0.47711568
0.47712397
0.47712892
0.47713465
0.47713625
0.47713773
0.47713395
0.47713363
5.7852198
0.92369791
0.54769791
0.50991251
0.5052681
0.50454398
0.50435864
0.50425944
0.50417732
0.50410087
0.5040275
0.50395694
0.50388872
0.50382292
0.5037593
0.50369785
0.50363848
0.50358109
0.50352572
0.50347215
0.50342055
0.5033706
0.50332262
0.50327612
0.5032316
0.50318843
0.50314726
0.50310729
0.50306936
0.50303251
0.50299775
0.50296392
0.50293221
0.50290133
0.50287264
0.50284461
0.50281883
0.5027936
0.50277068
0.5027481
0.50272784
0.50270781
0.50269033
0.50267288
0.50265789
0.50264238
0.5026311
0.50261783
0.50260906
0.50259817
0.50259171
0.50258304
0.50257873
0.50257222
0.50256995
0.50256546
0.50256507
0.50256284
0.50256371
0.50256351
0.50256569
0.5025667
0.50257024
0.5025724
0.50257705
0.50258017
0.50258562
0.5025894
0.50259529
0.50259936
0.50260524
0.50260911
0.50261443
0.50261743
0.50262147
0.50262278
0.5026246
0.50262304
0.50262113
0.50261506
0.50261013
5.5609395
0.7583031
0.54831083
0.53371263
0.53232074
0.53211933
0.53205071
0.53200147
0.53195594
0.53191302
0.53187107
0.53183121
0.53179207
0.53175491
0.53171834
0.53168364
0.53164946
0.53161705
0.53158513
0.53155487
0.53152508
0.53149685
0.53146911
0.53144282
0.53141704
0.5313926
0.53136874
0.53134608
0.53132405
0.53130313
0.53128291
0.53126365
0.53124517
0.53122754
0.53121078
0.53119472
0.53117962
0.53116509
0.53115164
0.53113856
0.53112665
0.53111497
0.53110471
0.53109445
0.5310856
0.53107648
0.53106957
0.53106145
0.53105614
0.53104924
0.53104534
0.53103953
0.53103691
0.53103221
0.53103084
0.53102715
0.53102683
0.53102427
0.53102467
0.53102327
0.53102449
0.53102362
0.5310258
0.53102538
0.53102818
0.5310282
0.53103143
0.53103174
0.53103515
0.53103554
0.53103881
0.53103905
0.53104184
0.53104155
0.53104335
0.53104212
0.53104232
0.53103933
0.53103709
0.53103156
0.53102654
0.1720312
0.1720882
0.17208
0.17202873
0.17195872
0.17188077
0.1718008
0.17172019
0.17163976
0.17156006
0.1714812
0.17140343
0.1713267
0.1712512
0.17117688
0.17110392
0.17103227
0.17096214
0.17089348
0.17082653
0.17076125
0.17069787
0.1706364
0.17057706
0.17051989
0.17046512
0.17041278
0.17036311
0.17031618
0.1702722
0.17023125
0.17019355
0.17015918
0.17012838
0.17010118
0.17007784
0.17005866
0.17004405
0.17003422
0.17002937
0.17002938
0.17003414
0.17004336
0.17005691
0.17007453
0.17009615
0.1701216
0.17015082
0.17018366
0.17022009
0.17026007
0.17030376
0.17035143
0.17040386
0.17046243
0.17052974
0.1706102
0.17071137
0.17084555
0.17103265
0.17130407
0.17170863
0.17232096
0.17325374
0.17467496
0.17683294
0.18009248
0.18498882
0.19231009
0.20322941
0.21952496
0.24396632
0.28103178
0.33833571
0.42972097
0.58271186
0.85905004
1.4222271
2.8225813
7.7611522
42.012529
0.17380368
0.17386342
0.17385334
0.17379937
0.17372701
0.17364784
0.17356637
0.17348435
0.17340262
0.17332172
0.17324174
0.17316291
0.17308517
0.17300873
0.1729335
0.1728597
0.17278724
0.17271635
0.17264698
0.17257935
0.17251343
0.17244945
0.17238742
0.17232756
0.1722699
0.17221466
0.1721619
0.17211184
0.17206454
0.17202022
0.17197895
0.17194095
0.17190631
0.17187524
0.17184785
0.17182433
0.17180487
0.17178999
0.17177993
0.17177488
0.17177473
0.17177936
0.17178848
0.17180193
0.17181949
0.17184107
0.17186649
0.1718957
0.17192855
0.17196501
0.17200501
0.17204867
0.17209622
0.17214832
0.17220618
0.17227208
0.17234997
0.17244662
0.17257316
0.1727477
0.17299899
0.17337204
0.17393611
0.17479643
0.17611089
0.17811426
0.18115334
0.18573933
0.19262797
0.20294737
0.21841103
0.241691
0.27711052
0.33202081
0.41978082
0.56692865
0.83292084
1.3749971
2.7218489
7.4660351
40.340345
0.17568426
0.17574631
0.17573382
0.17567672
0.17560248
0.1755216
0.1754385
0.17535501
0.17527195
0.1751898
0.17510866
0.17502874
0.17494998
0.17487257
0.17479643
0.17472176
0.17464849
0.17457683
0.17450674
0.17443843
0.17437188
0.17430731
0.17424472
0.17418434
0.1741262
0.17407052
0.17401734
0.17396689
0.17391924
0.17387459
0.17383302
0.17379474
0.17375984
0.17372853
0.17370092
0.17367725
0.17365758
0.17364244
0.17363215
0.17362691
0.17362662
0.17363112
0.17364015
0.17365352
0.17367102
0.17369254
0.17371794
0.17374714
0.17378
0.17381648
0.1738565
0.17390014
0.17394759
0.1739994
0.17405663
0.17412126
0.17419679
0.17428926
0.17440867
0.17457141
0.17480366
0.17514673
0.17566457
0.17645506
0.17766603
0.17951869
0.18234177
0.18662236
0.19308371
0.20280903
0.21744742
0.23957418
0.27335887
0.32589236
0.41005557
0.55141585
0.80718874
1.3284959
2.6228854
7.1770081
38.705019
0.17768161
0.17774543
0.17772993
0.17766963
0.17759335
0.17751053
0.17742571
0.17734068
0.17725624
0.17717282
0.17709049
0.17700945
0.17692965
0.17685125
0.17677418
0.17669863
0.17662454
0.17655211
0.1764813
0.1764123
0.17634512
0.17627995
0.17621682
0.17615593
0.17609731
0.17604119
0.17598761
0.1759368
0.1758888
0.17584383
0.17580197
0.17576343
0.17572828
0.17569674
0.17566893
0.17564507
0.17562528
0.1756099
0.17559939
0.17559397
0.17559354
0.17559793
0.17560687
0.17562016
0.1756376
0.17565907
0.17568444
0.17571363
0.1757465
0.175783
0.17582304
0.17586667
0.17591405
0.17596562
0.17602228
0.17608577
0.17615915
0.17624778
0.17636059
0.1765123
0.17672666
0.17704134
0.17751513
0.17823866
0.17934978
0.18105618
0.18366852
0.18764973
0.19369058
0.20282956
0.21665191
0.23763735
0.26980394
0.31998607
0.40059443
0.53624374
0.78195673
1.2828815
2.5259238
6.8943233
37.107565
0.17980529
0.17987023
0.17985102
0.17978763
0.17970892
0.17962402
0.1795374
0.17945079
0.17936493
0.1792802
0.17919666
0.17911447
0.1790336
0.17895419
0.17887618
0.17879974
0.17872482
0.17865161
0.17858007
0.17851039
0.17844258
0.17837683
0.17831315
0.17825175
0.17819268
0.17813613
0.17808216
0.17803098
0.17798266
0.17793739
0.17789526
0.17785647
0.17782109
0.17778934
0.17776133
0.1777373
0.17771738
0.17770182
0.17769109
0.17768551
0.17768494
0.17768923
0.17769807
0.17771129
0.17772867
0.17775009
0.17777543
0.1778046
0.17783748
0.177874
0.17791406
0.1779577
0.178005
0.17805637
0.17811253
0.17817501
0.17824645
0.17833157
0.17843828
0.17857975
0.17877736
0.17906527
0.17949725
0.1801568
0.18117186
0.18273672
0.1851439
0.18883218
0.19445981
0.2030207
0.21603678
0.23589342
0.26645953
0.31431724
0.39141506
0.52143295
0.75724828
1.2381789
2.431
6.618098
35.548895
0.18206596
0.18213123
0.18210765
0.18204108
0.18195964
0.18187253
0.18178405
0.1816958
0.18160848
0.18152239
0.18143761
0.18135425
0.18127229
0.18119185
0.18111289
0.18103554
0.1809598
0.18088579
0.18081353
0.18074317
0.18067474
0.1806084
0.18054418
0.1804823
0.18042277
0.18036581
0.18031146
0.18025994
0.1802113
0.18016576
0.18012337
0.18008434
0.18004875
0.18001681
0.17998862
0.17996442
0.17994435
0.17992869
0.17991775
0.179912
0.17991131
0.1799155
0.17992426
0.17993741
0.17995471
0.17997609
0.18000139
0.18003054
0.18006342
0.18009995
0.18014003
0.18018367
0.18023093
0.18028212
0.18033785
0.18039942
0.18046912
0.18055105
0.18065217
0.18078418
0.18096617
0.18122898
0.18162145
0.18222009
0.18314312
0.18457142
0.18677946
0.19018178
0.19540407
0.20339578
0.21561604
0.23435715
0.26334144
0.30890343
0.38253796
0.50700827
0.73309285
1.1944226
2.3381638
6.3484686
34.029805
0.18447536
0.18454004
0.18451156
0.18444146
0.1843571
0.18426768
0.18417727
0.18408734
0.18399852
0.18391104
0.18382498
0.18374042
0.18365735
0.18357586
0.18349594
0.18341768
0.1833411
0.18326631
0.18319332
0.18312229
0.18305323
0.18298632
0.18292158
0.18285921
0.18279925
0.18274188
0.18268718
0.18263533
0.1825864
0.1825406
0.18249797
0.18245874
0.18242295
0.18239083
0.18236248
0.18233812
0.18231792
0.18230215
0.18229104
0.18228514
0.18228433
0.18228843
0.18229711
0.18231019
0.18232743
0.18234875
0.182374
0.18240312
0.18243598
0.18247252
0.18251261
0.18255626
0.18260348
0.18265452
0.18270988
0.18277065
0.18283878
0.18291782
0.18301386
0.18313717
0.18330471
0.18354408
0.1838994
0.18444035
0.18527554
0.1865726
0.18858794
0.19171183
0.19653733
0.20396947
0.21540507
0.23304462
0.2604667
0.3037633
0.37398483
0.49299615
0.70952258
1.1516491
2.2474607
6.0855451
32.550968
0.18704673
0.18710964
0.18707576
0.18700172
0.18691428
0.18682245
0.18673004
0.18663839
0.18654801
0.18645911
0.18637174
0.18628595
0.18620176
0.18611921
0.1860383
0.18595913
0.1858817
0.18580612
0.18573241
0.18566071
0.18559104
0.18552357
0.18545832
0.18539548
0.1853351
0.18527736
0.18522232
0.18517018
0.18512098
0.18507494
0.1850321
0.18499268
0.18495672
0.18492445
0.18489594
0.18487146
0.18485113
0.18483526
0.18482401
0.18481797
0.18481705
0.18482107
0.18482967
0.18484267
0.18485984
0.1848811
0.18490629
0.18493538
0.18496821
0.18500474
0.18504484
0.18508848
0.18513566
0.18518657
0.1852416
0.18530167
0.18536841
0.18544487
0.1855363
0.18565167
0.18580591
0.18602354
0.18634411
0.18683069
0.18758246
0.1887539
0.19058345
0.19343706
0.19787506
0.20475804
0.21542086
0.23197354
0.25785378
0.29891676
0.36577854
0.47942487
0.68657259
1.1098997
2.1589389
5.8294306
31.112951
0.18979468
0.18985447
0.1898147
0.18973634
0.18964565
0.18955133
0.18945688
0.18936344
0.18927147
0.18918111
0.1890924
0.18900537
0.18892002
0.1888364
0.18875451
0.18867442
0.18859614
0.18851978
0.18844535
0.18837299
0.18830271
0.18823469
0.18816896
0.18810568
0.1880449
0.18798682
0.18793147
0.18787906
0.18782962
0.18778337
0.18774035
0.18770076
0.18766466
0.18763225
0.18760362
0.18757902
0.18755858
0.18754261
0.18753128
0.18752509
0.18752408
0.18752802
0.18753655
0.18754947
0.18756656
0.18758774
0.18761287
0.1876419
0.1876747
0.18771121
0.18775129
0.18779492
0.18784205
0.18789284
0.18794759
0.18800703
0.18807255
0.18814671
0.18823399
0.18834216
0.18848425
0.18868184
0.18897014
0.18940577
0.19007871
0.19113049
0.19278165
0.19537378
0.19943438
0.20577948
0.21568225
0.23116342
0.25552289
0.2943852
0.35794344
0.4663247
0.66428238
1.0692206
2.0726486
5.5802084
29.716198
0.1927358
0.1927909
0.19274457
0.19266155
0.19256749
0.1924706
0.19237404
0.19227878
0.19218517
0.19209331
0.19200322
0.19191493
0.19182841
0.19174371
0.1916608
0.1915798
0.19150067
0.19142354
0.1913484
0.1912754
0.19120455
0.19113601
0.19106981
0.19100613
0.190945
0.1908866
0.19083098
0.19077833
0.19072869
0.19068227
0.1906391
0.19059937
0.19056316
0.19053064
0.19050192
0.19047722
0.19045669
0.19044063
0.19042923
0.19042292
0.19042182
0.19042569
0.19043415
0.19044699
0.190464
0.19048509
0.19051013
0.19053909
0.19057183
0.19060828
0.19064833
0.19069192
0.19073901
0.19078968
0.19084417
0.19090306
0.19096749
0.19103961
0.1911232
0.1912249
0.19135595
0.19153522
0.19179372
0.19218192
0.19278084
0.19371924
0.1951999
0.19754008
0.20123424
0.2070537
0.21621005
0.23063574
0.25349591
0.29019122
0.35050444
0.4537268
0.64269329
1.0296643
1.9886432
5.3379525
28.361042
0.19588857
0.19593719
0.1958836
0.19579563
0.19569808
0.19559856
0.19549983
0.19540269
0.19530739
0.19521401
0.19512252
0.19503294
0.19494522
0.19485943
0.19477553
0.1946936
0.19461364
0.19453575
0.19445993
0.19438632
0.19431493
0.19424591
0.19417929
0.19411524
0.1940538
0.19399513
0.19393928
0.19388644
0.19383664
0.19379008
0.1937468
0.19370698
0.19367069
0.1936381
0.1936093
0.19358453
0.19356393
0.19354781
0.19353636
0.19352994
0.19352877
0.19353257
0.19354096
0.19355372
0.19357063
0.19359161
0.19361656
0.19364541
0.19367806
0.19371444
0.19375442
0.19379795
0.19384496
0.19389551
0.19394975
0.19400816
0.19407163
0.19414195
0.19422226
0.19431819
0.19443932
0.19460196
0.19483318
0.19517754
0.19570739
0.196539
0.19785758
0.19995606
0.20329574
0.20860293
0.2170275
0.23041445
0.2517971
0.28635935
0.34348796
0.44166392
0.62185188
0.99129124
1.9069845
5.1027199
27.047707
0.19927373
0.19931391
0.19925236
0.1991592
0.19905807
0.19895587
0.19885492
0.19875586
0.19865883
0.19856388
0.19847095
0.19838006
0.19829114
0.19820425
0.19811936
0.19803653
0.19795576
0.19787715
0.19780068
0.19772651
0.19765462
0.19758518
0.19751819
0.19745383
0.19739212
0.19733323
0.19727721
0.19722423
0.19717433
0.19712768
0.19708434
0.19704447
0.19700814
0.19697552
0.19694669
0.19692188
0.19690123
0.19688506
0.19687357
0.19686708
0.19686585
0.19686959
0.19687791
0.19689057
0.19690737
0.19692823
0.19695304
0.19698176
0.19701429
0.19705055
0.19709043
0.19713387
0.19718077
0.19723117
0.19728517
0.19734312
0.19740575
0.19747448
0.19755191
0.19764272
0.19775501
0.19790269
0.19810914
0.19841332
0.1988792
0.19961093
0.20077635
0.20264416
0.20564233
0.2104518
0.21816041
0.23052612
0.25045304
0.28291566
0.33692064
0.43016832
0.60180512
0.95417092
1.8277454
4.8745642
25.776303
0.20291508
0.20294448
0.20287427
0.20277571
0.20267091
0.20256596
0.20246273
0.20236169
0.20226288
0.20216633
0.20207194