/*--------------------------------*- C++ -*----------------------------------*\
| =========                 |                                                 |
| \\      /  F ield         | OpenFOAM: The Open Source CFD Toolbox           |
|  \\    /   O peration     | Version:  v2006                                 |
|   \\  /    A nd           | Website:  www.openfoam.com                      |
|    \\/     M anipulation  |                                                 |
\*---------------------------------------------------------------------------*/
FoamFile
{
    version     2.0;
    format      ascii;
    class       surfaceScalarField;
    location    "5000";
    object      phi;
}
// * * * * * * * * * * * * * * * * * * * * * * * * * * * * * * * * * * * * * //

dimensions      [1 0 -1 0 0 0 0];
oriented        oriented;


internalField   nonuniform List<scalar> 
204841
(
6.5913461e-06
-0.00020804668
0.00020145532
1.198196e-05
-0.00019930049
0.00019390986
1.6378105e-05
-0.00019140484
0.00018700868
1.9945219e-05
-0.00018420269
0.00018063556
2.2816618e-05
-0.00017759653
0.00017472511
2.510099e-05
-0.00017151535
0.00016923095
2.6887466e-05
-0.00016590245
0.00016411596
2.8249708e-05
-0.00016071094
0.00015934868
2.9248934e-05
-0.00015590071
0.00015490147
2.9936329e-05
-0.0001514373
0.00015074989
3.0354899e-05
-0.00014729097
0.00014687239
3.0540982e-05
-0.000143435
0.0001432489
3.0525445e-05
-0.00013984582
0.00013986134
3.0334486e-05
-0.00013650459
0.00013669553
2.9990671e-05
-0.00013339031
0.00013373412
2.9513267e-05
-0.00013048842
0.00013096581
2.8918933e-05
-0.00012778389
0.00012837821
2.8222036e-05
-0.00012526345
0.00012596033
2.7435089e-05
-0.00012291522
0.00012370216
2.6568922e-05
-0.00012072877
0.00012159492
2.5633038e-05
-0.00011869437
0.00011963025
2.46357e-05
-0.00011680342
0.00011780073
2.35842e-05
-0.000115048
0.00011609949
2.2484913e-05
-0.00011342107
0.00011452034
2.1343498e-05
-0.00011191627
0.00011305768
2.0164921e-05
-0.00011052778
0.00011170633
1.8953627e-05
-0.00010925034
0.00011046163
1.7713524e-05
-0.00010807932
0.00010931941
1.6448148e-05
-0.00010701044
0.00010827581
1.5160623e-05
-0.0001060399
0.00010732741
1.3853797e-05
-0.00010516434
0.00010647116
1.2530211e-05
-0.00010438072
0.00010570429
1.1192206e-05
-0.0001036864
0.0001050244
9.8418908e-06
-0.000103079
0.0001044293
8.4812352e-06
-0.00010255655
0.0001039172
7.1120431e-06
-0.00010211732
0.0001034865
5.7360259e-06
-0.00010175987
0.00010313588
4.3547773e-06
-0.00010148303
0.00010286427
2.9698457e-06
-0.00010128592
0.00010267085
1.582709e-06
-0.0001011679
0.00010255503
1.9483561e-07
-0.0001011286
0.00010251647
-1.1923292e-06
-0.00010116789
0.00010255504
-2.5773185e-06
-0.00010128589
0.00010267087
-3.9586489e-06
-0.00010148299
0.00010286431
-5.3347787e-06
-0.00010175981
0.00010313593
-6.7041026e-06
-0.00010211725
0.00010348657
-8.0649224e-06
-0.00010255647
0.00010391728
-9.4154198e-06
-0.00010307891
0.0001044294
-1.0753644e-05
-0.00010368629
0.00010502451
-1.2077469e-05
-0.0001043806
0.00010570442
-1.3384576e-05
-0.0001051642
0.0001064713
-1.4672402e-05
-0.00010603975
0.00010732757
-1.5938125e-05
-0.00010701027
0.00010827599
-1.7178596e-05
-0.00010807914
0.0001093196
-1.8390312e-05
-0.00010925013
0.00011046184
-1.9569334e-05
-0.00011052755
0.00011170657
-2.0711248e-05
-0.00011191602
0.00011305793
-2.1811058e-05
-0.0001134208
0.00011452061
-2.2863142e-05
-0.00011504771
0.00011609979
-2.3861094e-05
-0.0001168031
0.00011780105
-2.4797665e-05
-0.00011869402
0.00011963059
-2.5664555e-05
-0.0001207284
0.00012159529
-2.6452307e-05
-0.00012291481
0.00012370256
-2.7150056e-05
-0.00012526301
0.00012596076
-2.7745339e-05
-0.0001277834
0.00012837867
-2.8223742e-05
-0.00013048789
0.00013096629
-2.8568658e-05
-0.00013338972
0.00013373463
-2.8760777e-05
-0.00013650394
0.00013669606
-2.8777584e-05
-0.0001398451
0.0001398619
-2.8592835e-05
-0.00014343419
0.00014324945
-2.817571e-05
-0.00014729004
0.0001468729
-2.7489822e-05
-0.00015143615
0.00015075027
-2.6492185e-05
-0.00015589922
0.00015490157
-2.5131532e-05
-0.00016070881
0.00015934816
-2.3346594e-05
-0.00016589911
0.00016411416
-2.1063512e-05
-0.00017150954
0.00016922647
-1.8192851e-05
-0.00017758561
0.00017471494
-1.4625324e-05
-0.00018418039
0.00018061287
-1.0226518e-05
-0.00019135644
0.00018695762
-4.8294345e-06
-0.00019918814
0.00019379106
-0.00020776495
0.00020116019
1.7753149e-06
6.6084084e-06
-0.00021465509
1.2011645e-05
-0.00020470373
1.6417478e-05
-0.00019581066
1.9992087e-05
-0.0001877773
2.2869052e-05
-0.00018047348
2.515739e-05
-0.00017380368
2.69465e-05
-0.00016769155
2.8310225e-05
-0.00016207466
2.9309963e-05
-0.00015690044
2.9997043e-05
-0.00015212438
3.0414597e-05
-0.00014770852
3.0599061e-05
-0.00014361946
3.0581384e-05
-0.00013982813
3.0387849e-05
-0.00013631105
3.0041073e-05
-0.00013304353
2.9560386e-05
-0.00013000773
2.8962478e-05
-0.00012718597
2.826177e-05
-0.00012456274
2.7470787e-05
-0.00012212423
2.66004e-05
-0.00011985838
2.5660117e-05
-0.00011775408
2.4658242e-05
-0.00011580154
2.3602071e-05
-0.00011399182
2.2498006e-05
-0.000112317
2.1351706e-05
-0.00011076996
2.0168164e-05
-0.00010934423
1.8951823e-05
-0.00010803399
1.7706619e-05
-0.00010683411
1.6436076e-05
-0.00010573989
1.5143346e-05
-0.00010474716
1.3831264e-05
-0.00010385225
1.2502401e-05
-0.00010305185
1.1159077e-05
-0.00010234307
9.8034356e-06
-0.00010172335
8.437424e-06
-0.00010119054
7.0628793e-06
-0.00010074277
5.6814835e-06
-0.00010037847
4.2948704e-06
-0.00010009641
2.9045517e-06
-9.9895602e-05
1.5120483e-06
-9.9775382e-05
1.1878879e-07
-9.973534e-05
-1.2737414e-06
-9.9775339e-05
-2.6641175e-06
-9.9895517e-05
-4.0508063e-06
-0.00010009628
-5.4323096e-06
-0.00010037831
-6.8069721e-06
-0.00010074258
-8.1731366e-06
-0.00010119031
-9.5289385e-06
-0.00010172309
-1.0872465e-05
-0.00010234277
-1.2201539e-05
-0.00010305151
-1.3513878e-05
-0.00010385187
-1.4806869e-05
-0.00010474674
-1.6077726e-05
-0.00010573942
-1.7323245e-05
-0.0001068336
-1.853996e-05
-0.00010803342
-1.9723872e-05
-0.00010934362
-2.0870606e-05
-0.0001107693
-2.1975103e-05
-0.00011231629
-2.3031774e-05
-0.00011399105
-2.4034148e-05
-0.00011580071
-2.497501e-05
-0.00011775318
-2.5845985e-05
-0.00011985741
-2.663765e-05
-0.00012212316
-2.7339063e-05
-0.00012456157
-2.7937777e-05
-0.0001271847
-2.8419294e-05
-0.00013000635
-2.8767009e-05
-0.00013304203
-2.896151e-05
-0.00013630942
-2.8980267e-05
-0.00013982636
-2.8796917e-05
-0.00014361753
-2.8380603e-05
-0.00014770637
-2.7694795e-05
-0.00015212194
-2.6696433e-05
-0.0001568976
-2.5334065e-05
-0.00016207116
-2.3546297e-05
-0.0001676869
-2.1259027e-05
-0.0001737968
-1.8382612e-05
-0.00018046204
-1.4807431e-05
-0.00018775555
-1.0398737e-05
-0.00019576515
-4.9890312e-06
-0.00020459783
-0.00021438555
1.6315501e-06
6.6239646e-06
-0.00022127904
1.2039431e-05
-0.00021011919
1.6454787e-05
-0.00020022601
2.0036605e-05
-0.00019135911
2.2918909e-05
-0.00018335578
2.5211021e-05
-0.00017609578
2.7002568e-05
-0.00016948309
2.8367639e-05
-0.00016343972
2.9367789e-05
-0.00015790058
3.0054502e-05
-0.00015281108
3.0471005e-05
-0.00014812501
3.0653849e-05
-0.00014380229
3.0634049e-05
-0.00013980833
3.0437966e-05
-0.00013611495
3.0088262e-05
-0.00013269382
2.9604345e-05
-0.0001295238
2.9002926e-05
-0.00012658455
2.8298488e-05
-0.00012385829
2.7503561e-05
-0.0001213293
2.6629072e-05
-0.00011898388
2.5684524e-05
-0.00011680953
2.4678265e-05
-0.00011479527
2.3617577e-05
-0.00011293113
2.2508904e-05
-0.00011120832
2.1357894e-05
-0.00010961895
2.0169575e-05
-0.0001081559
1.8948377e-05
-0.00010681279
1.7698265e-05
-0.00010558399
1.6422753e-05
-0.00010446438
1.512502e-05
-0.00010344942
1.3807891e-05
-0.00010253512
1.2473953e-05
-0.0001017179
1.112552e-05
-0.00010099463
9.7647459e-06
-0.00010036256
8.3935721e-06
-9.9819361e-05
7.0138498e-06
-9.9363029e-05
5.6272575e-06
-9.8991879e-05
4.2354414e-06
-9.8704573e-05
2.8399082e-06
-9.8500071e-05
1.4421877e-06
-9.8377645e-05
4.3704708e-08
-9.8336861e-05
-1.3540423e-06
-9.8377576e-05
-2.749628e-06
-9.8499936e-05
-4.1415157e-06
-9.870438e-05
-5.5282007e-06
-9.8991632e-05
-6.9080268e-06
-9.9362735e-05
-8.2793271e-06
-9.9819016e-05
-9.6402368e-06
-0.00010036217
-1.0988833e-05
-0.00010099418
-1.2322934e-05
-0.00010171739
-1.3640255e-05
-0.00010253456
-1.4938174e-05
-0.0001034488
-1.6213905e-05
-0.0001044637
-1.7464227e-05
-0.00010558326
-1.8685671e-05
-0.00010681199
-1.9874227e-05
-0.00010815504
-2.1025523e-05
-0.00010961801
-2.2134483e-05
-0.00011120731
-2.3195518e-05
-0.00011293003
-2.4202134e-05
-0.00011479407
-2.5147103e-05
-0.00011680822
-2.602203e-05
-0.00011898246
-2.6817468e-05
-0.00012132774
-2.7522432e-05
-0.00012385659
-2.8124445e-05
-0.0001265827
-2.8608969e-05
-0.00012952181
-2.8959351e-05
-0.00013269166
-2.9156122e-05
-0.00013611263
-2.9176697e-05
-0.0001398058
-2.8994646e-05
-0.00014379956
-2.857903e-05
-0.000148122
-2.7893217e-05
-0.00015280774
-2.689405e-05
-0.00015789678
-2.5529926e-05
-0.00016343526
-2.3739305e-05
-0.00016947753
-2.1447861e-05
-0.00017608822
-1.8565752e-05
-0.00018334417
-1.4983003e-05
-0.00019133828
-1.0564593e-05
-0.00020018357
-5.1424417e-06
-0.00021001996
-0.00022102171
1.493705e-06
6.639838e-06
-0.00022791888
1.2067812e-05
-0.00021554715
1.6492966e-05
-0.00020465116
2.0082304e-05
-0.00019494844
2.2970198e-05
-0.00018624367
2.5266324e-05
-0.0001783919
2.7060552e-05
-0.00017127732
2.8427206e-05
-0.00016480637
2.9427994e-05
-0.00015890137
3.011456e-05
-0.00015349764
3.0530231e-05
-0.00014854069
3.0711672e-05
-0.00014398372
3.0689952e-05
-0.00013978661
3.0491525e-05
-0.00013591651
3.0139086e-05
-0.00013234138
2.965211e-05
-0.00012903681
2.9047339e-05
-0.00012597978
2.8339316e-05
-0.00012315025
2.754059e-05
-0.00012053058
2.6662132e-05
-0.00011810541
2.5713448e-05
-0.00011586085
2.470293e-05
-0.00011378473
2.3637856e-05
-0.00011186606
2.2524706e-05
-0.00011009515
2.1369118e-05
-0.00010846336
2.0176155e-05
-0.00010696292
1.8950232e-05
-0.00010558687
1.7695346e-05
-0.00010432909
1.6414997e-05
-0.00010318403
1.5112391e-05
-0.0001021468
1.3790335e-05
-0.00010121307
1.2451446e-05
-0.000100379
1.1098016e-05
-9.964121e-05
9.7322279e-06
-9.899676e-05
8.3560042e-06
-9.8443144e-05
6.9712205e-06
-9.7978229e-05
5.5795411e-06
-9.7600207e-05
4.1826339e-06
-9.730765e-05
2.7819964e-06
-9.7099442e-05
1.3791802e-06
-9.6974813e-05
-2.4397857e-08
-9.6933292e-05
-1.4272241e-06
-9.6974734e-05
-2.8278851e-06
-9.7099286e-05
-4.2248254e-06
-9.7307423e-05
-5.6165511e-06
-9.7599917e-05
-7.0013882e-06
-9.7977881e-05
-8.377682e-06
-9.8442735e-05
-9.7435453e-06
-9.8996288e-05
-1.109707e-05
-9.964067e-05
-1.2436053e-05
-0.00010037839
-1.3758222e-05
-0.0001012124
-1.5060935e-05
-0.00010214607
-1.6341417e-05
-0.00010318323
-1.7596431e-05
-0.00010432822
-1.8822518e-05
-0.00010558592
-2.0015646e-05
-0.00010696189
-2.117144e-05
-0.00010846223
-2.2284801e-05
-0.00011009392
-2.3350134e-05
-0.00011186471
-2.4360922e-05
-0.00011378327
-2.5309923e-05
-0.00011585924
-2.618871e-05
-0.00011810365
-2.6987803e-05
-0.00012052866
-2.769619e-05
-0.00012314819
-2.8301356e-05
-0.00012597755
-2.8788724e-05
-0.00012903442
-2.9141601e-05
-0.0001323388
-2.9340478e-05
-0.00013591374
-2.9362706e-05
-0.00013978359
-2.9181794e-05
-0.00014398045
-2.8766715e-05
-0.00014853709
-2.8080756e-05
-0.00015349368
-2.7080623e-05
-0.00015889693
-2.5714596e-05
-0.00016480127
-2.3920952e-05
-0.0001712712
-2.1625191e-05
-0.00017838397
-1.8737198e-05
-0.00018623218
-1.5146733e-05
-0.00019492873
-1.0718386e-05
-0.00020461193
-5.2836393e-06
-0.00021545469
-0.00022767363
1.3682653e-06
6.6556404e-06
-0.00023457451
1.2096059e-05
-0.00022098756
1.6531034e-05
-0.00020908614
2.0127911e-05
-0.00019854531
2.3021486e-05
-0.00018913725
2.5321694e-05
-0.0001806921
2.7118714e-05
-0.00017307434
2.8487056e-05
-0.0001661747
2.9488616e-05
-0.00015990293
3.0175163e-05
-0.00015418418
3.059015e-05
-0.00014895567
3.0770327e-05
-0.00014416389
3.0746851e-05
-0.00013976313
3.0546234e-05
-0.00013571589
3.0191233e-05
-0.00013198638
2.9701363e-05
-0.00012854693
2.9093413e-05
-0.00012537183
2.838195e-05
-0.00012243878
2.7579571e-05
-0.0001197282
2.669727e-05
-0.0001172231
2.5744595e-05
-0.00011490817
2.4729942e-05
-0.00011277007
2.3660621e-05
-0.00011079674
2.2543118e-05
-0.00010897764
2.1383091e-05
-0.00010730334
2.0185608e-05
-0.00010576543
1.89551e-05
-0.00010435637
1.7695569e-05
-0.00010306955
1.6410526e-05
-0.00010189899
1.5103175e-05
-0.00010083944
1.3776342e-05
-9.9886242e-05
1.2432633e-05
-9.9035275e-05
1.1074358e-05
-9.8282939e-05
9.7036913e-06
-9.7626083e-05
8.322574e-06
-9.7062031e-05
6.932868e-06
-9.6588513e-05
5.5362601e-06
-9.6203603e-05
4.1344069e-06
-9.5905787e-05
2.7288326e-06
-9.5693873e-05
1.32107e-06
-9.5567041e-05
-8.743561e-08
-9.5524791e-05
-1.495193e-06
-9.5566967e-05
-2.9007601e-06
-9.5693724e-05
-4.3026063e-06
-9.5905567e-05
-5.6992124e-06
-9.6203316e-05
-7.0889205e-06
-9.6588162e-05
-8.4700507e-06
-9.706161e-05
-9.8407375e-06
-9.7625589e-05
-1.1199047e-05
-9.8282367e-05
-1.2542794e-05
-9.9034631e-05
-1.3869681e-05
-9.9885525e-05
-1.5177088e-05
-0.00010083865
-1.6462206e-05
-0.00010189812
-1.7721816e-05
-0.0001030686
-1.8952427e-05
-0.00010435532
-2.0150021e-05
-0.00010576428
-2.1310187e-05
-0.00010730208
-2.2427837e-05
-0.00010897626
-2.3497336e-05
-0.00011079523
-2.4512168e-05
-0.00011276842
-2.5465047e-05
-0.00011490637
-2.6347534e-05
-0.00011722115
-2.7150116e-05
-0.0001197261
-2.7861759e-05
-0.00012243653
-2.8469919e-05
-0.00012536941
-2.8959988e-05
-0.00012854434
-2.9315237e-05
-0.00013198357
-2.9516102e-05
-0.00013571286
-2.9539884e-05
-0.00013975983
-2.9360012e-05
-0.0001441603
-2.8945388e-05
-0.00014895174
-2.8259189e-05
-0.00015417986
-2.7258022e-05
-0.00015989812
-2.5890015e-05
-0.00016616926
-2.4093299e-05
-0.00017306794
-2.1793158e-05
-0.00018068408
-1.8899261e-05
-0.0001891261
-1.5301054e-05
-0.00019852691
-1.0862786e-05
-0.00020905022
-5.4154797e-06
-0.00022090197
-0.00023434131
1.252173e-06
6.6714837e-06
-0.00024124598
1.2124445e-05
-0.0002264405
1.6569379e-05
-0.00021353105
2.0173929e-05
-0.00020214984
2.307329e-05
-0.0001920366
2.5377746e-05
-0.00018299654
2.7177694e-05
-0.00017487428
2.854787e-05
-0.00016754486
2.9550334e-05
-0.00016090539
3.0237001e-05
-0.00015487083
3.0651432e-05
-0.0001493701
3.0830483e-05
-0.00014434293
3.0805385e-05
-0.00013973804
3.0602722e-05
-0.00013551321
3.02453e-05
-0.00013162896
2.9752688e-05
-0.00012805431
2.9141704e-05
-0.00012476085
2.8426961e-05
-0.00012172402
2.7621075e-05
-0.00011892232
2.6735073e-05
-0.00011633708
2.5778519e-05
-0.00011395162
2.4759851e-05
-0.00011175139
2.3686384e-05
-0.00010972328
2.2564637e-05
-0.00010785588
2.1400268e-05
-0.00010613898
2.0198373e-05
-0.00010456352
1.8963376e-05
-0.00010312138
1.7699305e-05
-0.00010180546
1.6409658e-05
-0.00010060935
1.5097673e-05
-9.9527436e-05
1.376615e-05
-9.8554729e-05
1.2417733e-05
-9.7686842e-05
1.1054714e-05
-9.691993e-05
9.6792952e-06
-9.6250648e-05
8.293394e-06
-9.567614e-05
6.8988994e-06
-9.5194004e-05
5.4974804e-06
-9.4802195e-05
4.0908204e-06
-9.4499113e-05
2.6804269e-06
-9.428349e-05
1.2678574e-06
-9.4154457e-05
-1.454638e-07
-9.4111481e-05
-1.5580208e-06
-9.4154395e-05
-2.968391e-06
-9.4283365e-05
-4.3750192e-06
-9.4498924e-05
-5.7764051e-06
-9.4801942e-05
-7.1708686e-06
-9.5193683e-05
-8.5567464e-06
-9.5675744e-05
-9.9321489e-06
-9.6250169e-05
-1.1295163e-05
-9.6919365e-05
-1.2643579e-05
-9.7686197e-05
-1.3975115e-05
-9.8554001e-05
-1.528712e-05
-9.9526626e-05
-1.6576803e-05
-0.00010060845
-1.784092e-05
-0.00010180446
-1.9075979e-05
-0.00010312027
-2.0277942e-05
-0.0001045623
-2.1442391e-05
-0.00010613764
-2.2564216e-05
-0.00010785442
-2.3637766e-05
-0.00010972169
-2.4656502e-05
-0.00011174967
-2.5613121e-05
-0.00011394976
-2.6499167e-05
-0.00011633509
-2.7305106e-05
-0.00011892017
-2.8019888e-05
-0.00012172173
-2.8630941e-05
-0.00012475837
-2.9123622e-05
-0.00012805164
-2.9481154e-05
-0.00013162605
-2.9683926e-05
-0.00013551006
-2.9709174e-05
-0.0001397346
-2.9530262e-05
-0.0001443392
-2.9116004e-05
-0.00014936602
-2.8429484e-05
-0.00015486635
-2.7427192e-05
-0.00016090043
-2.6057127e-05
-0.0001675393
-2.4257249e-05
-0.00017486783
-2.1952657e-05
-0.00018298865
-1.9052771e-05
-0.00019202601
-1.5446768e-05
-0.00020213289
-1.0998509e-05
-0.0002134985
-5.5386126e-06
-0.00022636184
-0.00024102479
1.1448458e-06
6.6872958e-06
-0.00024793329
1.2152829e-05
-0.00023190604
1.6607779e-05
-0.00021798602
2.0220054e-05
-0.00020576212
2.3125315e-05
-0.00019494187
2.5434077e-05
-0.0001853053
2.7237057e-05
-0.00017667727
2.8609173e-05
-0.00016891697
2.9612652e-05
-0.00016190888
3.0299546e-05
-0.00015555772
3.0713533e-05
-0.0001497841
3.0891563e-05
-0.00014452095
3.0864951e-05
-0.00013971143
3.0660352e-05
-0.00013530861
3.0300629e-05
-0.00013126925
2.9805397e-05
-0.00012755907
2.9191513e-05
-0.00012414698
2.8473624e-05
-0.00012100612
2.7664372e-05
-0.00011811307
2.6774815e-05
-0.00011544751
2.5814529e-05
-0.00011299135
2.4791979e-05
-0.00011072882
2.3714491e-05
-0.0001086458
2.2588612e-05
-0.00010672998
2.1420007e-05
-0.00010497039
2.0213798e-05
-0.00010335729
1.8974408e-05
-0.000101882
1.770589e-05
-0.00010053692
1.6411738e-05
-9.9315216e-05
1.509521e-05
-9.8210888e-05
1.37591e-05
-9.7218635e-05
1.2406076e-05
-9.6333798e-05
1.1038417e-05
-9.5552287e-05
9.6583521e-06
-9.4870563e-05
8.2677788e-06
-9.4285584e-05
6.8686133e-06
-9.3794817e-05
5.4625006e-06
-9.33961e-05
4.051152e-06
-9.3087743e-05
2.6360484e-06
-9.2868404e-05
1.2187788e-06
-9.2737166e-05
-1.9926185e-07
-9.2693459e-05
-1.6165215e-06
-9.2737113e-05
-3.0316072e-06
-9.2868298e-05
-4.4429259e-06
-9.3087582e-05
-5.8490096e-06
-9.3395877e-05
-7.248143e-06
-9.3794525e-05
-8.6386952e-06
-9.4285211e-05
-1.0018737e-05
-9.4870103e-05
-1.1386383e-05
-9.5551739e-05
-1.273939e-05
-9.6333166e-05
-1.4075498e-05
-9.7217913e-05
-1.5392025e-05
-9.8210076e-05
-1.6686191e-05
-9.9314307e-05
-1.7954717e-05
-0.00010053591
-1.9194125e-05
-0.00010188088
-2.0400337e-05
-0.00010335607
-2.1568946e-05
-0.00010496905
-2.2694804e-05
-0.00010672854
-2.3772273e-05
-0.00010864424
-2.4794774e-05
-0.00011072714
-2.5755023e-05
-0.00011298954
-2.6644518e-05
-0.00011544557
-2.7453739e-05
-0.00011811097
-2.8171581e-05
-0.00012100386
-2.8785459e-05
-0.00012414451
-2.9280672e-05
-0.0001275564
-2.9640415e-05
-0.00013126633
-2.9845008e-05
-0.00013530545
-2.9871642e-05
-0.00013970799
-2.9693596e-05
-0.00014451722
-2.9279623e-05
-0.00014978001
-2.8592694e-05
-0.00015555326
-2.7589205e-05
-0.00016190394
-2.6217003e-05
-0.00016891147
-2.4413902e-05
-0.00017667096
-2.2104795e-05
-0.00018529773
-1.9198876e-05
-0.00019493195
-1.5585024e-05
-0.00020574672
-1.1126745e-05
-0.0002179568
-5.6542339e-06
-0.00023183432
-0.00024772409
1.045042e-06
6.7031158e-06
-0.0002546364
1.2181318e-05
-0.00023738424
1.6646375e-05
-0.00022245107
2.0266514e-05
-0.00020938225
2.3177745e-05
-0.0001978531
2.5490954e-05
-0.0001876185
2.7297072e-05
-0.00017848339
2.8671235e-05
-0.00017029113
2.9675838e-05
-0.00016291349
3.0363064e-05
-0.00015624494
3.0776707e-05
-0.00015019775
3.0953812e-05
-0.00014469805
3.0925775e-05
-0.0001396834
3.0719323e-05
-0.00013510215
3.0357381e-05
-0.00013090731
2.9859615e-05
-0.00012706129
2.9242921e-05
-0.00012353029
2.8521983e-05
-0.00012028518
2.7709469e-05
-0.00011730057
2.6816461e-05
-0.00011455449
2.5852561e-05
-0.00011202746
2.4826248e-05
-0.0001097025
2.3744868e-05
-0.00010756444
2.2614977e-05
-0.00010560008
2.1442255e-05
-0.00010379768
2.0231833e-05
-0.00010214685
1.8988152e-05
-0.00010063833
1.7715272e-05
-9.9264029e-05
1.6416704e-05
-9.8016665e-05
1.5095711e-05
-9.6889879e-05
1.3755099e-05
-9.5878042e-05
1.2397541e-05
-9.4976223e-05
1.1025327e-05
-9.4180093e-05
9.6406865e-06
-9.3485905e-05
8.2455273e-06
-9.2890445e-05
6.8417627e-06
-9.2391035e-05
5.4310429e-06
-9.19854e-05
4.0150729e-06
-9.1671755e-05
2.5953378e-06
-9.1448689e-05
1.1734287e-06
-9.1315238e-05
-2.4925545e-07
-9.1270795e-05
-1.6711636e-06
-9.1315186e-05
-3.0908973e-06
-9.1448585e-05
-4.5068614e-06
-9.1671598e-05
-5.9175764e-06
-9.1985183e-05
-7.3213339e-06
-9.2390748e-05
-8.7164905e-06
-9.2890075e-05
-1.0101125e-05
-9.348545e-05
-1.1473332e-05
-9.4179553e-05
-1.2830876e-05
-9.4975604e-05
-1.4171472e-05
-9.5877336e-05
-1.5492444e-05
-9.6889087e-05
-1.6790985e-05
-9.8015785e-05
-1.8063822e-05
-9.9263061e-05
-1.9307452e-05
-0.00010063727
-2.0517803e-05
-0.0001021457
-2.1690452e-05
-0.00010379642
-2.2820249e-05
-0.00010559872
-2.3901541e-05
-0.00010756297
-2.492775e-05
-0.00010970092
-2.5891561e-05
-0.00011202575
-2.6784469e-05
-0.00011455264
-2.7596912e-05
-0.00011729855
-2.8317765e-05
-0.00012028299
-2.8934399e-05
-0.0001235279
-2.9432079e-05
-0.0001270587
-2.9793949e-05
-0.00013090448
-3.0000286e-05
-0.00013509909
-3.0028222e-05
-0.00013968007
-2.985097e-05
-0.00014469444
-2.9437203e-05
-0.0001501938
-2.8749802e-05
-0.00015624063
-2.7745041e-05
-0.00016290873
-2.6370643e-05
-0.00017028585
-2.4564254e-05
-0.00017847737
-2.2250579e-05
-0.00018761138
-1.933857e-05
-0.00019784399
-1.5716832e-05
-0.00020936843
-1.1248491e-05
-0.00022242517
-5.7633452e-06
-0.00023731944
-0.00025443923
9.5177013e-07
6.7188752e-06
-0.00026135529
1.2209784e-05
-0.00024287516
1.6685012e-05
-0.00022692631
2.0313032e-05
-0.00021301028
2.3230333e-05
-0.00020077041
2.5548031e-05
-0.00018993621
2.7357371e-05
-0.00018029274
2.8733664e-05
-0.00017166743
2.9739484e-05
-0.00016391931
3.0427138e-05
-0.00015693259
3.0840541e-05
-0.00015061116
3.1016812e-05
-0.00014487432
3.0987446e-05
-0.00013965405
3.0779222e-05
-0.00013489392
3.0415137e-05
-0.00013054324
2.9914903e-05
-0.00012656105
2.9295472e-05
-0.00012291087
2.8571554e-05
-0.00011956125
2.7755854e-05
-0.00011648488
2.6859476e-05
-0.00011365811
2.5892048e-05
-0.00011106005
2.4862062e-05
-0.0001086725
2.3776889e-05
-0.00010647928
2.2643087e-05
-0.00010446627
2.1466363e-05
-0.00010262097
2.0251842e-05
-0.00010093232
1.9003991e-05
-9.9390497e-05
1.7726863e-05
-9.7986891e-05
1.6423989e-05
-9.6713806e-05
1.5098626e-05
-9.5564504e-05
1.3753609e-05
-9.453304e-05
1.2391598e-05
-9.3614199e-05
1.1014906e-05
-9.2803417e-05
9.6257564e-06
-9.2096741e-05
8.2260778e-06
-9.1490783e-05
6.8177744e-06
-9.0982717e-05
5.4025067e-06
-9.0570149e-05
3.9819744e-06
-9.0251206e-05
2.5576691e-06
-9.0024402e-05
1.1311753e-06
-8.9888727e-05
-2.960941e-07
-8.9843544e-05
-1.7225933e-06
-8.9888669e-05
-3.1469105e-06
-9.0024286e-05
-4.5674588e-06
-9.0251032e-05
-5.9827488e-06
-9.0569912e-05
-7.3910692e-06
-9.098241e-05
-8.7907648e-06
-9.1490399e-05
-1.0179916e-05
-9.209628e-05
-1.1556605e-05
-9.2802884e-05
-1.2918589e-05
-9.3613601e-05
-1.4263573e-05
-9.4532372e-05
-1.5588875e-05
-9.5563767e-05
-1.6891685e-05
-9.6712995e-05
-1.8168722e-05
-9.7986006e-05
-1.9416488e-05
-9.9389526e-05
-2.0630901e-05
-0.00010093127
-2.1807531e-05
-0.00010261982
-2.2941215e-05
-0.00010446502
-2.4026295e-05
-0.00010647791
-2.5056164e-05
-0.00010867102
-2.6023502e-05
-0.00011105843
-2.6919762e-05
-0.00011365636
-2.7735371e-05
-0.00011648296
-2.8459159e-05
-0.00011955918
-2.9078477e-05
-0.00012290861
-2.9578543e-05
-0.00012655861
-2.9942473e-05
-0.00013054058
-3.0150482e-05
-0.00013489105
-3.0179657e-05
-0.00013965092
-3.0003138e-05
-0.00014487094
-2.958952e-05
-0.00015060745
-2.8901582e-05
-0.00015692854
-2.78955e-05
-0.00016391484
-2.6518847e-05
-0.00017166247
-2.4709123e-05
-0.00018028713
-2.239083e-05
-0.00018992964
-1.9472693e-05
-0.00020076215
-1.5843027e-05
-0.00021299807
-1.13646e-05
-0.00022690362
-5.8667929e-06
-0.00024281722
-0.00026117022
8.6416505e-07
6.7345969e-06
-0.00026808989
1.223832e-05
-0.00024837888
1.6723771e-05
-0.00023141177
2.0359789e-05
-0.0002166463
2.328321e-05
-0.00020369384
2.5605501e-05
-0.0001922585
2.7418142e-05
-0.00018210538
2.8796656e-05
-0.00017304594
2.9803776e-05
-0.00016492644
3.0491947e-05
-0.00015762076
3.0905191e-05
-0.00015102441
3.1080729e-05
-0.00014504986
3.1050123e-05
-0.00013962345
3.0840219e-05
-0.00013468401
3.047407e-05
-0.0001301771
2.997144e-05
-0.00012605842
2.9349325e-05
-0.00012228877
2.862248e-05
-0.0001188344
2.780364e-05
-0.00011566605
2.6903941e-05
-0.0001127584
2.5933033e-05
-0.00011008915
2.4899426e-05
-0.00010763889
2.3810511e-05
-0.00010539037
2.2672861e-05
-0.00010332861
2.1492195e-05
-0.00010144031
2.027365e-05
-9.9713771e-05
1.9021702e-05
-9.8138561e-05
1.7740405e-05
-9.6705586e-05
1.6433306e-05
-9.5406721e-05
1.5103661e-05
-9.423485e-05
1.3754312e-05
-9.3183704e-05
1.2387919e-05
-9.2247797e-05
1.1006811e-05
-9.1422322e-05
9.6132062e-06
-9.0703126e-05
8.2090567e-06
-9.0086647e-05
6.7962562e-06
-8.9569905e-05
5.376487e-06
-8.9150394e-05
3.9514302e-06
-8.8826138e-05
2.5226017e-06
-8.8595588e-05
1.0915675e-06
-8.8457681e-05
-3.4023572e-07
-8.8411756e-05
-1.7712761e-06
-8.8457616e-05
-3.2001209e-06
-8.8595457e-05
-4.6251972e-06
-8.8825943e-05
-6.044989e-06
-8.9150136e-05
-7.4578039e-06
-8.9569582e-05
-8.8619588e-06
-9.008626e-05
-1.0255545e-05
-9.0702682e-05
-1.1636619e-05
-9.1421826e-05
-1.3002954e-05
-9.2247253e-05
-1.4352238e-05
-9.3183106e-05
-1.5681798e-05
-9.4234192e-05
-1.6988816e-05
-9.5405995e-05
-1.8270016e-05
-9.670479e-05
-1.952188e-05
-9.8137682e-05
-2.0740322e-05
-9.9712809e-05
-2.19209e-05
-0.00010143926
-2.3058441e-05
-0.00010332746
-2.4147262e-05
-0.00010538911
-2.5180747e-05
-0.00010763752
-2.6151546e-05
-0.00011008765
-2.70511e-05
-0.00011275678
-2.7869802e-05
-0.00011566429
-2.8596462e-05
-0.00011883249
-2.9218396e-05
-0.0001222867
-2.9720792e-05
-0.00012605619
-3.0086724e-05
-0.00013017468
-3.0296359e-05
-0.00013468139
-3.0326723e-05
-0.00013962059
-3.0150885e-05
-0.00014504675
-2.9737366e-05
-0.000151021
-2.9048846e-05
-0.00015761704
-2.804139e-05
-0.00016492233
-2.6662437e-05
-0.0001730414
-2.4849336e-05
-0.00018210026
-2.2526382e-05
-0.00019225257
-1.960208e-05
-0.00020368649
-1.5964453e-05
-0.00021663567
-1.1475914e-05
-0.00023139219
-5.9654274e-06
-0.00024832768
-0.00026791707
7.8138515e-07
6.750254e-06
-0.00027484014
1.2266823e-05
-0.00025389545
1.6762552e-05
-0.0002359075
2.0406598e-05
-0.00022029034
2.3336195e-05
-0.00020662344
2.5663136e-05
-0.00019458543
2.7479136e-05
-0.00018392139
2.8859935e-05
-0.00017442673
2.9868409e-05
-0.00016593492
3.0557162e-05
-0.00015830951
3.0970307e-05
-0.00015143756
3.1145177e-05
-0.00014522472
3.1113397e-05
-0.00013959168
3.0901896e-05
-0.0001344725
3.0533762e-05
-0.00012980898
3.0028819e-05
-0.00012555347
2.940409e-05
-0.00012166405
2.8674381e-05
-0.00011810468
2.7852457e-05
-0.00011484414
2.6949486e-05
-0.00011185542
2.5975139e-05
-0.00010911482
2.4937954e-05
-0.00010660169
2.3845331e-05
-0.00010429776
2.2703869e-05
-0.00010218714
2.1519296e-05
-0.00010025576
2.0296763e-05
-9.849123e-05
1.9040756e-05
-9.6882567e-05
1.775534e-05
-9.5420161e-05
1.6444066e-05
-9.4095459e-05
1.5110193e-05
-9.2900969e-05
1.3756572e-05
-9.1830096e-05
1.2385861e-05
-9.0877077e-05
1.1000394e-05
-9.0036867e-05
9.6023898e-06
-8.9305113e-05
8.1938124e-06
-8.8678082e-05
6.7765609e-06
-8.8152644e-05
5.3523261e-06
-8.7726172e-05
3.9227924e-06
-8.7396594e-05
2.4894851e-06
-8.7162293e-05
1.0539701e-06
-8.7022156e-05
-3.8230839e-07
-8.697549e-05
-1.8178202e-06
-8.7022094e-05
-3.2511201e-06
-8.716217e-05
-4.6806396e-06
-8.7396413e-05
-6.1048532e-06
-8.7725935e-05
-7.5220685e-06
-8.8152356e-05
-8.930596e-06
-8.8677747e-05
-1.032853e-05
-8.9304736e-05
-1.1713921e-05
-9.0036448e-05
-1.3084546e-05
-9.0876615e-05
-1.4438086e-05
-9.182958e-05
-1.5771871e-05
-9.2900394e-05
-1.7083064e-05
-9.4094816e-05
-1.8368391e-05
-9.5419448e-05
-1.9624313e-05
-9.6881775e-05
-2.0846745e-05
-9.8490361e-05
-2.2031217e-05
-0.0001002548
-2.3172557e-05
-0.0001021861
-2.4265056e-05
-0.00010429663
-2.5302092e-05
-0.00010660047
-2.6276287e-05
-0.00010911348
-2.7179072e-05
-0.00011185398
-2.8000804e-05
-0.00011484257
-2.8730284e-05
-0.00011810299
-2.9354784e-05
-0.00012166222
-2.9859467e-05
-0.00012555148
-3.0227349e-05
-0.00012980681
-3.0438565e-05
-0.00013447016
-3.0470062e-05
-0.00013958911
-3.0294861e-05
-0.00014522193
-2.9881383e-05
-0.0001514345
-2.9192231e-05
-0.00015830616
-2.8183348e-05
-0.00016593123
-2.6802053e-05
-0.00017442267
-2.4985518e-05
-0.00018391682
-2.2657869e-05
-0.00019458019
-1.9727354e-05
-0.00020661703
-1.6081739e-05
-0.00022028126
-1.1583052e-05
-0.0002358909
-6.0598666e-06
-0.00025385084
-0.00027467976
7.0281004e-07
6.7658662e-06
-0.00028160601
1.2295361e-05
-0.00025942494
1.6801434e-05
-0.00024041357
2.0453571e-05
-0.00022394247
2.3389409e-05
-0.00020955928
2.5721056e-05
-0.00019691707
2.7540482e-05
-0.00018574082
2.8923621e-05
-0.00017580986
2.9933518e-05
-0.00016694483
3.06229e-05
-0.00015899888
3.1036005e-05
-0.00015185067
3.1210252e-05
-0.00014539896
3.1177354e-05
-0.00013955879
3.09643e-05
-0.00013425944
3.0594243e-05
-0.00012943893
3.0087049e-05
-0.00012504626
2.9459786e-05
-0.0001210368
2.8727284e-05
-0.00011737217
2.7902345e-05
-0.00011401921
2.699616e-05
-0.00011094923
2.601843e-05
-0.00010813709
2.4977711e-05
-0.00010556096
2.3881428e-05
-0.00010320149
2.2736192e-05
-0.00010104189
2.1547748e-05
-9.906732e-05
2.0321258e-05
-9.7264728e-05
1.9061219e-05
-9.5622537e-05
1.777171e-05
-9.4130641e-05
1.6456291e-05
-9.2780049e-05
1.5118228e-05
-9.1562893e-05
1.3760379e-05
-9.0472256e-05
1.2385404e-05
-8.950209e-05
1.0995639e-05
-8.8647112e-05
9.5933059e-06
-8.7902768e-05
8.180365e-06
-8.7265151e-05
6.7587255e-06
-8.6730991e-05
5.330085e-06
-8.6297542e-05
3.8961373e-06
-8.5962633e-05
2.4584116e-06
-8.5724579e-05
1.0184811e-06
-8.5582211e-05
-4.2220731e-07
-8.5534814e-05
-1.8621194e-06
-8.5582166e-05
-3.2998129e-06
-8.572449e-05
-4.7337091e-06
-8.5962501e-05
-6.1622913e-06
-8.6297367e-05
-7.5838534e-06
-8.6730777e-05
-8.9967185e-06
-8.7264897e-05
-1.0398961e-05
-8.7902475e-05
-1.1788651e-05
-8.8646775e-05
-1.3163539e-05
-8.9501707e-05
-1.4521319e-05
-9.0471818e-05
-1.5859293e-05
-9.15624e-05
-1.7174636e-05
-9.2779492e-05
-1.846404e-05
-9.4130023e-05
-1.9723987e-05
-9.562185e-05
-2.0950348e-05
-9.7263976e-05
-2.2138677e-05
-9.9066494e-05
-2.3283756e-05
-0.000101041
-2.4379899e-05
-0.00010320051
-2.542043e-05
-0.00010555991
-2.6397993e-05
-0.00010813594
-2.7303957e-05
-0.00011094799
-2.8128702e-05
-0.00011401786
-2.8860954e-05
-0.00011737071
-2.9487998e-05
-0.0001210352
-2.9994913e-05
-0.00012504454