/*--------------------------------*- C++ -*----------------------------------*\
| =========                 |                                                 |
| \\      /  F ield         | OpenFOAM: The Open Source CFD Toolbox           |
|  \\    /   O peration     | Version:  v2006                                 |
|   \\  /    A nd           | Website:  www.openfoam.com                      |
|    \\/     M anipulation  |                                                 |
\*---------------------------------------------------------------------------*/
FoamFile
{
    version     2.0;
    format      ascii;
    class       volVectorField;
    location    "5000";
    object      U;
}
// * * * * * * * * * * * * * * * * * * * * * * * * * * * * * * * * * * * * * //

dimensions      [0 1 -1 0 0 0 0];


internalField   nonuniform List<vector> 
102907
(
(0.094540341 7.775507e-07 5.0301427e-19)
(0.094462861 -3.5319267e-07 -5.368434e-19)
(0.094432116 7.1154384e-07 -1.6828032e-20)
(0.09441877 4.1986867e-07 -1.0776043e-18)
(0.094412634 9.2423603e-07 1.0750904e-18)
(0.094409667 9.7112339e-07 2.1427636e-18)
(0.094408144 1.2661924e-06 -4.2843106e-18)
(0.094407309 1.3821016e-06 2.1386333e-18)
(0.094406814 1.6355377e-06 8.3786149e-21)
(0.094406494 1.7461078e-06 0)
(0.094406266 1.9730158e-06 0)
(0.09440609 2.1143487e-06 -2.1856837e-18)
(0.094405943 2.3017681e-06 2.2115776e-18)
(0.094405814 2.4770868e-06 -2.2123543e-18)
(0.094405699 2.6712983e-06 2.239569e-18)
(0.094405591 2.8668339e-06 0)
(0.094405491 3.0631485e-06 -2.2817975e-18)
(0.094405396 3.2349673e-06 4.5883332e-18)
(0.094405307 3.4010225e-06 1.564584e-28)
(0.094405221 3.5649886e-06 -2.3346516e-18)
(0.09440514 3.7176018e-06 0)
(0.094405063 3.8685925e-06 -2.3683277e-18)
(0.094404991 4.0226183e-06 4.7842806e-18)
(0.094404921 4.1594353e-06 6.0047745e-28)
(0.094404857 4.2886883e-06 -2.4353223e-18)
(0.094404796 4.4290039e-06 -4.784867e-21)
(0.094404739 4.571653e-06 0)
(0.094404686 4.7086144e-06 -1.2442994e-18)
(0.094404637 4.8409344e-06 1.2540464e-18)
(0.094404591 4.9752181e-06 0)
(0.094404549 5.111673e-06 1.278672e-18)
(0.094404511 5.2496824e-06 -1.2886266e-18)
(0.094404477 5.387547e-06 -1.2935962e-18)
(0.094404447 5.5192398e-06 1.3087448e-18)
(0.094404421 5.648351e-06 -5.1319667e-21)
(0.094404399 5.7788837e-06 0)
(0.094404382 5.9025901e-06 -3.3357067e-19)
(0.094404368 6.0207104e-06 3.4141458e-19)
(0.09440436 6.1459408e-06 0)
(0.094404356 6.2800927e-06 5.3343539e-21)
(0.094404357 6.4169084e-06 -9.1385868e-20)
(0.094404363 6.5539905e-06 9.1495553e-20)
(0.094404374 6.6858503e-06 -3.4226291e-19)
(0.09440439 6.8160976e-06 5.3081426e-21)
(0.094404412 6.9485805e-06 3.4246356e-19)
(0.094404437 7.0824762e-06 6.6936856e-19)
(0.094404467 7.2179337e-06 -1.3339497e-18)
(0.094404501 7.3498656e-06 -6.6457437e-19)
(0.094404539 7.4821912e-06 1.3089929e-18)
(0.094404581 7.6188128e-06 1.2991988e-18)
(0.094404626 7.7539428e-06 -1.2894581e-18)
(0.094404676 7.888123e-06 0)
(0.094404729 8.0226908e-06 0)
(0.094404786 8.1564422e-06 0)
(0.094404846 8.2922711e-06 -4.8863604e-21)
(0.094404911 8.4304056e-06 0)
(0.09440498 8.5626383e-06 2.4587615e-18)
(0.094405053 8.6977639e-06 -2.4492523e-18)
(0.09440513 8.8392626e-06 4.7370745e-21)
(0.094405211 8.9789991e-06 -4.6997638e-21)
(0.094405297 9.1304859e-06 0)
(0.094405387 9.285067e-06 0)
(0.094405482 9.4384685e-06 2.3488528e-18)
(0.094405583 9.6048114e-06 -2.3251155e-18)
(0.094405686 9.7775985e-06 0)
(0.094405797 9.9404008e-06 0)
(0.094405911 1.011719e-05 -2.2809854e-18)
(0.094406033 1.0290895e-05 6.8410172e-28)
(0.094406159 1.0477483e-05 2.2427411e-18)
(0.094406293 1.0647661e-05 0)
(0.094406432 1.0844538e-05 -8.5804708e-21)
(0.09440658 1.1023476e-05 0)
(0.094406735 1.1227076e-05 -8.4398487e-21)
(0.094406899 1.1413864e-05 0)
(0.094407073 1.1627983e-05 8.3092447e-21)
(0.094407256 1.1827798e-05 -2.1119528e-18)
(0.094407452 1.2058387e-05 2.0981468e-18)
(0.09440766 1.2284722e-05 -1.6298155e-20)
(0.094407885 1.2527038e-05 0)
(0.094408126 1.2792452e-05 5.1749756e-19)
(0.094408402 1.2994345e-05 -5.0220458e-19)
(0.094545046 1.2193551e-06 5.235537e-19)
(0.094472592 -3.906579e-07 -5.2652166e-19)
(0.094444576 8.9238878e-07 4.9670886e-20)
(0.094432728 3.8356075e-07 3.3206675e-20)
(0.094427416 9.3720006e-07 2.1571972e-18)
(0.094424891 9.1775672e-07 -2.1204511e-18)
(0.094423612 1.205667e-06 8.2804175e-21)
(0.09442291 1.3168957e-06 -2.1244393e-18)
(0.094422491 1.5571001e-06 2.1258875e-18)
(0.094422212 1.6762847e-06 -1.6780138e-20)
(0.094422009 1.8888719e-06 2.1640243e-18)
(0.094421845 2.0069007e-06 3.4384277e-27)
(0.094421707 2.1803775e-06 -2.2089236e-18)
(0.094421581 2.3032966e-06 -8.6695174e-21)
(0.094421468 2.455174e-06 0)
(0.09442136 2.6062221e-06 2.2669401e-18)
(0.094421261 2.7833742e-06 -2.2819928e-18)
(0.094421165 2.9693876e-06 1.3458649e-20)
(0.094421076 3.1649822e-06 2.3253436e-18)
(0.094420989 3.3513182e-06 -2.3264695e-18)
(0.094420909 3.5276268e-06 0)
(0.09442083 3.6946011e-06 -2.3879522e-18)
(0.094420756 3.835266e-06 2.3932137e-18)
(0.094420685 3.9674681e-06 0)
(0.094420619 4.0939996e-06 4.7490803e-21)
(0.094420555 4.2126659e-06 4.7865349e-21)
(0.094420495 4.330034e-06 0)
(0.094420439 4.4487158e-06 1.2445959e-18)
(0.094420386 4.5687094e-06 1.1197935e-27)
(0.094420337 4.6895641e-06 -1.2738672e-18)
(0.094420291 4.8082861e-06 -4.9756674e-21)
(0.094420249 4.9219017e-06 -1.2785976e-18)
(0.094420211 5.0229295e-06 1.2935245e-18)
(0.094420177 5.1074864e-06 6.5684925e-19)
(0.094420146 5.1821895e-06 -6.5166239e-19)
(0.09442012 5.2505897e-06 1.0341753e-20)
(0.094420097 5.3356621e-06 3.3870858e-19)
(0.094420079 5.4493014e-06 -6.7741311e-19)
(0.094420064 5.5731624e-06 3.3339351e-19)
(0.094420055 5.6901112e-06 -5.3329761e-21)
(0.094420049 5.8010454e-06 5.374274e-21)
(0.09442005 5.9233332e-06 -5.3784381e-21)
(0.094420053 6.0464854e-06 0)
(0.094420064 6.1678761e-06 -3.4463965e-19)
(0.094420076 6.2947185e-06 -3.4733772e-19)
(0.094420095 6.4281387e-06 6.6861195e-19)
(0.094420115 6.5744631e-06 5.1846662e-21)
(0.094420142 6.7129616e-06 5.1460834e-21)
(0.094420169 6.854966e-06 0)
(0.094420203 7.0210848e-06 1.0139411e-20)
(0.094420237 7.1734193e-06 -1.2881602e-18)
(0.094420278 7.3012343e-06 1.2785259e-18)
(0.09442032 7.4371673e-06 -1.2590203e-18)
(0.094420367 7.5837618e-06 1.2593756e-18)
(0.094420416 7.7112797e-06 -1.2449594e-18)
(0.094420471 7.8245017e-06 1.2403221e-18)
(0.094420527 7.9374731e-06 2.466423e-18)
(0.09442059 8.0611935e-06 -2.4378059e-18)
(0.094420653 8.1776797e-06 2.409309e-18)
(0.094420723 8.2564937e-06 -2.3903079e-18)
(0.094420794 8.3553973e-06 0)
(0.094420872 8.4624975e-06 9.2420638e-21)
(0.094420951 8.5672485e-06 -2.3466317e-18)
(0.094421037 8.7214554e-06 2.3226521e-18)
(0.094421124 8.8967562e-06 -2.3076655e-18)
(0.094421218 9.0429962e-06 2.2790991e-18)
(0.094421313 9.2311855e-06 8.8606248e-21)
(0.094421416 9.4194959e-06 2.2485205e-18)
(0.094421521 9.6231456e-06 -2.2199782e-18)
(0.094421633 9.7815728e-06 2.2088194e-18)
(0.09442175 1.0003939e-05 8.5507497e-21)
(0.094421873 1.017262e-05 -4.3554551e-18)
(0.094422004 1.0377897e-05 2.5191667e-20)
(0.09442214 1.0541885e-05 2.1304024e-18)
(0.094422286 1.0753979e-05 -2.4744413e-20)
(0.094422436 1.0934083e-05 1.6353256e-20)
(0.094422601 1.1165306e-05 0)
(0.094422769 1.1376662e-05 1.6087661e-20)
(0.094422959 1.1614056e-05 0)
(0.09442315 1.1861899e-05 0)
(0.094423383 1.2102063e-05 0)
(0.094549751 1.5386489e-06 -5.1290865e-19)
(0.094481932 -4.8728134e-07 5.1646617e-19)
(0.094456429 9.336795e-07 9.7742956e-19)
(0.094445948 3.2556553e-07 -1.0477746e-18)
(0.094441372 8.8445577e-07 -3.2782771e-20)
(0.094439238 8.4157431e-07 0)
(0.094438169 1.1140911e-06 3.2845099e-20)
(0.094437582 1.2190611e-06 -2.1107542e-18)
(0.094437228 1.4532937e-06 -4.5944879e-27)
(0.094436986 1.5752552e-06 2.1570442e-18)
(0.094436806 1.7808095e-06 0)
(0.094436655 1.8996902e-06 2.177935e-18)
(0.094436526 2.0509381e-06 -2.1977811e-18)
(0.094436406 2.1563712e-06 0)
(0.094436296 2.2793437e-06 0)
(0.094436191 2.3948113e-06 2.2490253e-18)
(0.094436094 2.5229065e-06 -2.2688011e-18)
(0.094435999 2.659736e-06 -2.6922766e-20)
(0.094435911 2.8153993e-06 2.3079283e-18)
(0.094435826 2.9747699e-06 -2.345539e-18)
(0.094435746 3.1395746e-06 -1.8404105e-20)
(0.094435668 3.3028593e-06 9.2771153e-21)
(0.094435596 3.4494592e-06 0)
(0.094435525 3.5918737e-06 0)
(0.094435459 3.7272265e-06 -2.4322016e-18)
(0.094435395 3.8528849e-06 2.4512428e-18)
(0.094435336 3.9737801e-06 -9.6496151e-21)
(0.094435278 4.090702e-06 1.2447029e-18)
(0.094435225 4.2051873e-06 -1.2640872e-18)
(0.094435174 4.3150848e-06 9.8743674e-21)
(0.094435128 4.4172025e-06 0)
(0.094435083 4.5095294e-06 0)
(0.094435044 4.5905071e-06 1.0102985e-20)
(0.094435006 4.6644257e-06 -6.5154627e-19)
(0.094434973 4.7254058e-06 6.5654572e-19)
(0.094434943 4.7816109e-06 -6.8226701e-19)
(0.094434917 4.8510803e-06 6.6147903e-19)
(0.094434894 4.9409751e-06 -1.049737e-20)
(0.094434875 5.0467337e-06 -1.6396711e-19)
(0.094434861 5.1616426e-06 1.7056647e-19)
(0.09443485 5.2850642e-06 8.5943766e-20)
(0.094434844 5.4099683e-06 9.6721053e-20)
(0.094434842 5.5323095e-06 -1.7070724e-19)
(0.094434846 5.6590374e-06 3.3887144e-19)
(0.094434852 5.7916494e-06 -1.003795e-18)
(0.094434863 5.9261299e-06 6.5726886e-19)
(0.094434877 6.0655873e-06 -6.6274643e-19)
(0.094434895 6.2059887e-06 -6.5783275e-19)
(0.094434916 6.3502966e-06 1.3059163e-18)
(0.094434941 6.4931734e-06 -1.2962386e-18)
(0.094434969 6.6182713e-06 -9.9897306e-28)
(0.094435001 6.7358371e-06 2.5641049e-18)
(0.094435035 6.8476644e-06 -1.2675475e-18)
(0.094435073 6.9377977e-06 0)
(0.094435114 7.0180895e-06 0)
(0.09443516 7.0968809e-06 -9.6808319e-21)
(0.094435207 7.1629448e-06 0)
(0.094435259 7.2310396e-06 0)
(0.094435312 7.3093337e-06 9.4586905e-21)
(0.094435371 7.3910603e-06 -9.3841162e-21)
(0.09443543 7.4941366e-06 0)
(0.094435495 7.6165397e-06 9.2335926e-21)
(0.09443556 7.7656605e-06 0)
(0.094435631 7.9228576e-06 -1.8161467e-20)
(0.094435702 8.1086975e-06 -2.2868227e-18)
(0.09443578 8.271647e-06 8.9249589e-21)
(0.094435858 8.4794936e-06 2.2468481e-18)
(0.094435944 8.6155939e-06 0)
(0.094436031 8.8233642e-06 -3.4740728e-20)
(0.094436125 8.930131e-06 2.2025269e-18)
(0.094436222 9.1436334e-06 -2.1814661e-18)
(0.094436325 9.2439524e-06 -2.1433701e-18)
(0.094436433 9.4664464e-06 2.0887743e-18)
(0.094436546 9.5689995e-06 3.30858e-20)
(0.094436666 9.805723e-06 -2.0797006e-18)
(0.094436791 9.9169803e-06 -4.8626711e-20)
(0.094436925 1.018281e-05 1.0267954e-18)
(0.094437064 1.031102e-05 1.0481428e-18)
(0.094437218 1.0636996e-05 0)
(0.094437374 1.072156e-05 -4.9819008e-19)
(0.094437565 1.1058365e-05 4.8109507e-19)
(0.094553868 1.725683e-06 0)
(0.094490296 -5.3724063e-07 6.3333437e-20)
(0.094467113 9.4503767e-07 1.057873e-18)
(0.094457881 2.8812137e-07 -1.0007947e-18)
(0.094453959 8.3751516e-07 2.1048344e-18)
(0.094452167 7.8293343e-07 -2.0445328e-18)
(0.094451278 1.0389555e-06 -6.5152324e-20)
(0.09445079 1.1385766e-06 0)
(0.09445049 1.3595592e-06 -3.303211e-20)
(0.09445028 1.4791967e-06 -2.1330369e-18)
(0.094450118 1.6767631e-06 4.3066665e-18)
(0.094449981 1.7948389e-06 -2.1742123e-18)
(0.094449859 1.946622e-06 0)
(0.094449746 2.0524432e-06 -2.2161987e-18)
(0.09444964 2.1550424e-06 2.2194873e-18)
(0.094449539 2.2444096e-06 -2.257478e-18)
(0.094449443 2.343865e-06 -4.9703008e-27)
(0.094449352 2.4440768e-06 4.6134039e-18)
(0.094449264 2.5559041e-06 -2.3355883e-18)
(0.094449181 2.6741282e-06 0)
(0.094449101 2.8067757e-06 1.8409172e-20)
(0.094449025 2.9437574e-06 0)
(0.094448953 3.077759e-06 0)
(0.094448883 3.2152505e-06 0)
(0.094448817 3.3477318e-06 1.9003864e-20)
(0.094448754 3.470897e-06 -1.2256828e-18)
(0.094448695 3.590436e-06 -9.6493372e-21)
(0.094448638 3.7081072e-06 1.2445658e-18)
(0.094448584 3.8198839e-06 1.9594432e-20)
(0.094448534 3.9225286e-06 -1.2635645e-18)
(0.094448486 4.0162982e-06 1.2731415e-18)
(0.094448442 4.1010438e-06 0)
(0.0944484 4.1837033e-06 -2.019549e-20)
(0.094448362 4.2657801e-06 6.4098801e-19)
(0.094448326 4.3277031e-06 -6.5611771e-19)
(0.094448295 4.3799056e-06 1.0330081e-20)
(0.094448265 4.4455883e-06 1.0409149e-20)
(0.094448241 4.5285549e-06 -3.2516211e-19)
(0.094448217 4.6291298e-06 3.3823719e-19)
(0.094448201 4.741017e-06 0)
(0.094448184 4.8645003e-06 -8.5860884e-20)
(0.094448176 4.9922467e-06 7.5126278e-20)
(0.094448168 5.113483e-06 0)
(0.094448169 5.2308503e-06 0)
(0.094448169 5.3476422e-06 0)
(0.094448177 5.4671028e-06 1.1942467e-26)
(0.094448184 5.5867847e-06 0)
(0.094448199 5.7008881e-06 0)
(0.094448213 5.8039997e-06 0)
(0.094448234 5.9047418e-06 -1.3045095e-18)
(0.094448254 5.9995261e-06 1.284868e-18)
(0.094448282 6.0729052e-06 1.255469e-18)
(0.094448308 6.1437384e-06 -1.2758622e-18)
(0.094448341 6.2133074e-06 1.9634032e-20)
(0.094448373 6.26935e-06 -1.9487548e-20)
(0.094448413 6.3340194e-06 2.9011677e-20)
(0.094448449 6.4070461e-06 -2.4760895e-18)
(0.094448494 6.4798171e-06 2.4380698e-18)
(0.094448535 6.5724566e-06 0)
(0.094448586 6.6801706e-06 -1.8750921e-20)
(0.094448632 6.8055029e-06 -1.8601e-20)
(0.094448687 6.9460631e-06 -2.3800018e-18)
(0.094448738 7.1025039e-06 2.3419574e-18)
(0.094448799 7.2604179e-06 -2.3039714e-18)
(0.094448856 7.4431726e-06 4.5859986e-18)
(0.094448923 7.580149e-06 -4.5631295e-18)
(0.094448987 7.7548732e-06 2.2784699e-18)
(0.09444906 7.8529751e-06 0)
(0.094449131 8.0283151e-06 1.7329809e-20)
(0.094449212 8.1166755e-06 0)
(0.09444929 8.3021231e-06 2.1740615e-18)
(0.094449379 8.3933683e-06 -4.3027543e-18)
(0.094449465 8.5962213e-06 3.3254366e-20)
(0.094449562 8.6930592e-06 2.1047686e-18)
(0.094449657 8.9116684e-06 -2.0808554e-18)
(0.094449764 9.0138203e-06 2.0886825e-18)
(0.094449869 9.2728103e-06 9.841853e-19)
(0.094449987 9.3619437e-06 -1.0347699e-18)
(0.094450106 9.7445581e-06 0)
(0.094450239 9.6932642e-06 0)
(0.094450387 1.0287965e-05 0)
(0.094557602 1.8075137e-06 0)
(0.094497957 -5.5657645e-07 -1.0563846e-18)
(0.094476933 9.2610053e-07 1.0093189e-18)
(0.094468842 2.5663502e-07 9.5488028e-19)
(0.094465505 7.8365474e-07 -3.1026934e-18)
(0.094464012 7.2472019e-07 2.0237864e-18)
(0.094463278 9.6249772e-07 6.4630593e-20)
(0.094462873 1.0547873e-06 0)
(0.094462619 1.2533569e-06 3.2882904e-20)
(0.094462438 1.3644563e-06 3.3218508e-20)
(0.094462292 1.5467433e-06 0)
(0.094462167 1.6602707e-06 2.204474e-18)
(0.094462052 1.8141241e-06 3.4261492e-20)
(0.094461947 1.9255028e-06 5.1805152e-27)
(0.094461845 2.0347267e-06 -4.4196074e-18)
(0.09446175 2.1236168e-06 2.257031e-18)
(0.094461657 2.2010176e-06 0)
(0.09446157 2.2775706e-06 1.7952386e-20)
(0.094461484 2.3642505e-06 1.8107984e-20)
(0.094461404 2.4508759e-06 0)
(0.094461326 2.5473468e-06 0)
(0.094461253 2.647053e-06 -1.8561879e-20)
(0.09446118 2.7533479e-06 2.3948778e-18)
(0.094461114 2.8680855e-06 -2.4136957e-18)
(0.094461048 2.9812441e-06 -1.9003255e-20)
(0.094460987 3.0902803e-06 -1.2255378e-18)
(0.094460928 3.2007422e-06 1.2541521e-18)
(0.094460873 3.312232e-06 1.2441843e-18)
(0.094460819 3.4170492e-06 -2.5168654e-18)
(0.09446077 3.5147285e-06 1.2629293e-18)
(0.094460722 3.6064859e-06 0)
(0.094460678 3.6974761e-06 2.0029683e-20)
(0.094460635 3.7966035e-06 1.3015955e-18)
(0.094460598 3.8917869e-06 -1.2808753e-18)
(0.09446056 3.9704799e-06 2.0484572e-20)
(0.094460528 4.0354614e-06 0)
(0.094460496 4.0968401e-06 3.2234521e-19)
(0.094460471 4.1741138e-06 6.1869914e-28)
(0.094460445 4.2734702e-06 -4.9622714e-19)
(0.094460427 4.3861579e-06 1.7023004e-19)
(0.094460408 4.4969464e-06 8.5732762e-20)
(0.094460398 4.6050536e-06 -8.5700269e-20)
(0.094460387 4.7109628e-06 3.5086882e-19)
(0.094460385 4.8102506e-06 -6.7540176e-19)
(0.094460382 4.9056762e-06 3.3519481e-19)
(0.094460386 4.9965744e-06 1.039744e-20)
(0.09446039 5.0872241e-06 0)
(0.094460401 5.1746689e-06 -1.3318778e-18)
(0.09446041 5.2476562e-06 1.3017961e-18)
(0.094460427 5.3091582e-06 0)
(0.094460442 5.3710766e-06 -1.2828647e-18)
(0.094460465 5.4268874e-06 2.5569481e-18)
(0.094460484 5.4790155e-06 -1.2641821e-18)
(0.094460513 5.5402697e-06 -1.2745048e-18)
(0.094460537 5.6033718e-06 1.2456274e-18)
(0.09446057 5.6753205e-06 -2.4920286e-18)
(0.094460598 5.7641785e-06 4.9274227e-18)
(0.094460636 5.8602963e-06 -2.4354591e-18)
(0.094460668 5.9721161e-06 0)
(0.094460711 6.0959527e-06 1.8732256e-20)
(0.094460747 6.2288909e-06 2.3971629e-18)
(0.094460794 6.3739457e-06 -2.3776202e-18)
(0.094460835 6.5335378e-06 2.3395125e-18)
(0.094460887 6.6627054e-06 -2.3195069e-18)
(0.094460934 6.8054031e-06 0)
(0.094460992 6.8977056e-06 -2.2783436e-18)
(0.094461044 7.0369321e-06 2.2571009e-18)
(0.094461108 7.1121703e-06 0)
(0.094461165 7.2622934e-06 0)
(0.094461235 7.3405095e-06 0)
(0.094461298 7.5098083e-06 -2.2006114e-18)
(0.094461373 7.5981319e-06 4.3187261e-18)
(0.094461443 7.786195e-06 3.3090445e-20)
(0.094461525 7.8814494e-06 -2.1249009e-18)
(0.094461601 8.0853314e-06 0)
(0.094461691 8.1853706e-06 1.9749163e-18)
(0.094461774 8.4355089e-06 -2.9843347e-18)
(0.094461873 8.4972916e-06 6.1918373e-20)
(0.094461967 8.9089184e-06 9.7559739e-19)
(0.094462077 8.7675038e-06 0)
(0.094462193 9.5407678e-06 0)
(0.094560879 1.8088466e-06 4.5416349e-19)
(0.094504887 -5.4983653e-07 -4.8782255e-19)
(0.094485882 8.863292e-07 6.206833e-20)
(0.094478835 2.3408721e-07 1.066926e-18)
(0.094476017 7.290182e-07 -1.0110996e-18)
(0.094474783 6.7190527e-07 0)
(0.094474181 8.8983331e-07 -3.2062635e-20)
(0.094473847 9.7450727e-07 0)
(0.094473632 1.1481058e-06 -2.0952656e-18)
(0.094473474 1.2459596e-06 2.0860186e-18)
(0.094473343 1.4082182e-06 0)
(0.094473229 1.5108444e-06 -2.2008066e-18)
(0.094473122 1.6580449e-06 -3.42222e-20)
(0.094473024 1.7708981e-06 4.4257907e-18)
(0.094472928 1.8912664e-06 -2.2699039e-18)
(0.094472838 1.9897289e-06 3.525762e-20)
(0.09447275 2.0753001e-06 2.2418715e-18)
(0.094472667 2.1501934e-06 -2.2979353e-18)
(0.094472585 2.216021e-06 0)
(0.094472509 2.2815969e-06 0)
(0.094472432 2.3567659e-06 -1.8413688e-20)
(0.094472362 2.4320958e-06 1.8562462e-20)
(0.094472292 2.5116342e-06 -2.3760957e-18)
(0.094472228 2.5962169e-06 2.4134355e-18)
(0.094472164 2.6817391e-06 0)
(0.094472105 2.7685586e-06 1.2251722e-18)
(0.094472046 2.8599939e-06 -1.2343571e-18)
(0.094471994 2.9543005e-06 1.9430341e-20)
(0.09447194 3.0460529e-06 -1.9574187e-20)
(0.094471893 3.1355727e-06 0)
(0.094471845 3.2248625e-06 -1.9864034e-20)
(0.094471803 3.3199385e-06 -2.0010594e-20)
(0.09447176 3.4290985e-06 1.2699871e-18)
(0.094471724 3.5400043e-06 -1.3403332e-18)
(0.094471686 3.6422019e-06 6.3424231e-19)
(0.094471655 3.728223e-06 -6.5960739e-19)
(0.094471622 3.7990555e-06 0)
(0.094471596 3.8726795e-06 -2.0925621e-20)
(0.09447157 3.9539693e-06 1.7922552e-19)
(0.094471551 4.0400834e-06 -1.6997828e-19)
(0.094471531 4.1244398e-06 2.1394564e-20)
(0.09447152 4.2052498e-06 -1.710364e-19)
(0.094471507 4.2871203e-06 -1.8036515e-19)
(0.094471504 4.3687111e-06 3.3698265e-19)
(0.094471498 4.4435727e-06 0)
(0.094471501 4.5107535e-06 2.0751674e-20)
(0.094471502 4.5719053e-06 0)
(0.094471511 4.6327358e-06 1.9488317e-26)
(0.094471516 4.6880457e-06 2.0301551e-20)
(0.09447153 4.7317779e-06 0)
(0.094471541 4.7816891e-06 1.2805964e-18)
(0.09447156 4.8375164e-06 -2.5427079e-18)
(0.094471574 4.8954741e-06 2.5440458e-18)
(0.094471598 4.969036e-06 -1.2530032e-18)
(0.094471616 5.0520532e-06 1.9435282e-20)
(0.094471644 5.1436288e-06 -2.469408e-18)
(0.094471666 5.2471384e-06 -4.8202286e-27)
(0.094471697 5.35367e-06 4.8651492e-18)
(0.094471723 5.4732536e-06 -2.413955e-18)
(0.094471759 5.604942e-06 2.3951359e-18)
(0.094471789 5.7392956e-06 -2.3575043e-18)
(0.094471829 5.8542972e-06 1.8411699e-20)
(0.094471864 5.9708067e-06 -2.3369707e-18)
(0.094471909 6.0553546e-06 2.3349349e-18)
(0.094471948 6.1650439e-06 -3.5878638e-20)
(0.094471998 6.2313133e-06 2.2751106e-18)
(0.094472041 6.3521252e-06 -2.2886156e-18)
(0.094472095 6.4217468e-06 2.2310561e-18)
(0.094472143 6.5609006e-06 -4.4160239e-18)
(0.094472202 6.6376283e-06 2.1841902e-18)
(0.094472254 6.7932298e-06 2.1595358e-18)
(0.094472318 6.877526e-06 -4.2679474e-18)
(0.094472374 7.0501281e-06 2.1074243e-18)
(0.094472443 7.1414043e-06 3.2496919e-20)
(0.094472505 7.3300476e-06 0)
(0.09447258 7.4260188e-06 6.3154746e-20)
(0.094472647 7.6653915e-06 9.3256753e-19)
(0.094472729 7.7086245e-06 -1.0393572e-18)
(0.094472804 8.1312788e-06 -1.0208693e-18)
(0.094472894 7.9320323e-06 1.3547164e-18)
(0.094472986 8.8154036e-06 -4.5163142e-19)
(0.09456372 1.7455047e-06 1.1128448e-19)
(0.094511156 -5.2347864e-07 -1.1969034e-19)
(0.094494047 8.2908146e-07 -6.1070967e-20)
(0.094487957 2.1708875e-07 -6.1873167e-20)
(0.0944856 6.7248395e-07 0)
(0.094484591 6.2238027e-07 -2.0152907e-18)
(0.094484101 8.1982855e-07 1.9727241e-18)
(0.094483828 8.9915831e-07 0)
(0.094483645 1.0531714e-06 0)
(0.094483509 1.1390219e-06 0)
(0.09448339 1.2749777e-06 0)
(0.094483287 1.3622727e-06 2.1295564e-18)
(0.094483187 1.4945404e-06 5.0197885e-27)
(0.094483097 1.5993401e-06 -2.211176e-18)
(0.094483006 1.7232167e-06 0)
(0.094482924 1.8264983e-06 -7.0495128e-20)
(0.09448284 1.9248408e-06 7.1160275e-20)
(0.094482763 2.0120159e-06 -1.7951609e-20)
(0.094482684 2.0845337e-06 0)
(0.094482614 2.1501047e-06 -2.3376036e-18)
(0.09448254 2.2124002e-06 2.3752714e-18)
(0.094482475 2.2688074e-06 0)
(0.094482406 2.3289282e-06 -1.8706219e-20)
(0.094482347 2.3939309e-06 0)
(0.094482283 2.459958e-06 -2.4500239e-18)
(0.094482229 2.5265731e-06 2.4491519e-18)
(0.094482171 2.5957086e-06 -1.2336053e-18)
(0.094482122 2.6677713e-06 -3.8832137e-20)
(0.094482068 2.740714e-06 1.2516683e-18)
(0.094482025 2.8149139e-06 -1.9699168e-20)
(0.094481976 2.8942477e-06 -1.2500437e-18)
(0.094481937 2.9841756e-06 1.2591167e-18)
(0.094481893 3.0857709e-06 1.2884155e-18)
(0.09448186 3.2004061e-06 -1.277561e-18)
(0.094481821 3.3149073e-06 0)
(0.094481793 3.411477e-06 -6.3795857e-19)
(0.094481759 3.4885039e-06 6.6345422e-19)
(0.094481737 3.5507324e-06 3.5511259e-19)
(0.094481708 3.6090797e-06 -5.2618672e-19)
(0.094481692 3.6698913e-06 8.4833784e-20)
(0.094481669 3.7300625e-06 6.404702e-20)
(0.09448166 3.786053e-06 0)
(0.094481644 3.8437336e-06 3.3868552e-19)
(0.094481642 3.9060778e-06 -3.3616718e-19)
(0.094481633 3.9656021e-06 -6.8823e-19)
(0.094481637 4.0183041e-06 1.3042762e-18)
(0.094481633 4.0646706e-06 -6.3712329e-19)
(0.094481642 4.1136188e-06 2.0404018e-20)
(0.094481642 4.1655606e-06 -1.3167404e-18)
(0.094481656 4.2158802e-06 1.2872163e-18)
(0.09448166 4.2764357e-06 1.2980104e-18)
(0.094481679 4.3471493e-06 -2.5180518e-18)
(0.094481686 4.4257048e-06 1.2402064e-18)
(0.094481708 4.5148756e-06 -1.9544969e-20)
(0.09448172 4.608049e-06 0)
(0.094481746 4.707714e-06 -1.9263451e-20)
(0.094481761 4.8185989e-06 1.9122012e-20)
(0.09448179 4.9296585e-06 -2.429387e-18)
(0.09448181 5.036067e-06 -1.8835723e-20)
(0.094481843 5.1342461e-06 2.3923192e-18)
(0.094481866 5.2308997e-06 -3.7083851e-20)
(0.094481904 5.3002183e-06 1.8391019e-20)
(0.094481931 5.3855299e-06 0)
(0.094481972 5.4466121e-06 -5.4236149e-20)
(0.094482003 5.5457869e-06 7.1664982e-20)
(0.094482048 5.6122736e-06 -3.5497609e-20)
(0.094482083 5.729665e-06 3.5151673e-20)
(0.094482131 5.7992743e-06 -2.2615643e-18)
(0.094482169 5.9290061e-06 2.2029726e-18)
(0.094482221 6.0019225e-06 -2.2122395e-18)
(0.094482262 6.1436467e-06 2.1860174e-18)
(0.094482318 6.2233091e-06 -3.3209577e-20)
(0.094482363 6.3799168e-06 -2.1299373e-18)
(0.094482423 6.4665471e-06 2.03523e-18)
(0.094482472 6.6381708e-06 0)
(0.094482536 6.7287682e-06 -6.2609909e-20)
(0.094482589 6.9533528e-06 1.2304917e-19)
(0.094482658 6.9848858e-06 0)
(0.094482717 7.4029593e-06 5.9148596e-20)
(0.094482794 7.1734965e-06 5.7839035e-20)
(0.094482864 8.1085431e-06 -1.1059655e-19)
(0.094566134 1.6329178e-06 -1.0909003e-19)
(0.094516817 -4.8248057e-07 1.1748288e-19)
(0.094501499 7.578784e-07 -1.2017979e-19)
(0.094496278 2.0291756e-07 0)
(0.094494328 6.1345743e-07 6.1676613e-20)
(0.094493509 5.7388992e-07 1.9334479e-18)
(0.094493115 7.5169917e-07 -3.979302e-18)
(0.094492889 8.2724417e-07 -6.4554358e-27)
(0.094492735 9.6424321e-07 2.0126606e-18)
(0.094492614 1.0428609e-06 2.1058806e-18)
(0.094492508 1.16013e-06 -2.1333518e-18)
(0.094492413 1.232496e-06 6.7493176e-20)
(0.094492321 1.3412013e-06 3.4142558e-20)
(0.094492236 1.424232e-06 2.2439259e-18)
(0.094492153 1.5348082e-06 -2.2327043e-18)
(0.094492075 1.6358877e-06 3.5235891e-20)
(0.094491997 1.7403226e-06 -2.2766703e-18)
(0.094491925 1.8334441e-06 2.2975145e-18)
(0.094491852 1.9168855e-06 0)
(0.094491786 1.9940027e-06 -1.8260531e-20)
(0.094491717 2.0642473e-06 0)
(0.094491656 2.1257354e-06 -1.8556542e-20)
(0.094491592 2.1840582e-06 1.8700304e-20)
(0.094491535 2.2386483e-06 0)
(0.094491475 2.2893101e-06 1.4926213e-26)
(0.094491424 2.3390285e-06 -1.2237427e-18)
(0.094491368 2.3918459e-06 -1.9259286e-20)
(0.094491321 2.4486499e-06 1.2608308e-18)
(0.09449127 2.5055978e-06 1.5365384e-26)
(0.094491229 2.5642018e-06 1.9674638e-20)
(0.094491182 2.6250125e-06 1.98145e-20)
(0.094491145 2.691245e-06 -1.2572082e-18)
(0.094491103 2.7679007e-06 1.3064006e-18)
(0.094491071 2.8651634e-06 0)
(0.094491034 2.9731361e-06 -6.3208822e-19)
(0.094491007 3.069433e-06 1.2939625e-18)
(0.094490975 3.1434617e-06 -1.0138468e-18)
(0.094490953 3.1956825e-06 3.1267607e-19)
(0.094490926 3.2371949e-06 0)
(0.09449091 3.2790502e-06 0)
(0.094490888 3.3241163e-06 0)
(0.094490878 3.3678556e-06 0)
(0.094490863 3.4123756e-06 2.1109542e-20)
(0.09449086 3.4615842e-06 3.35247e-19)
(0.09449085 3.5136459e-06 -9.7755483e-19)
(0.094490853 3.5631014e-06 6.4008064e-19)
(0.094490847 3.6115316e-06 -6.9696505e-19)
(0.094490854 3.6668842e-06 1.9538394e-18)
(0.094490853 3.7289654e-06 2.0208107e-20)
(0.094490864 3.7962563e-06 -1.2841971e-18)
(0.094490866 3.8733801e-06 -1.9924621e-20)
(0.094490881 3.9548776e-06 -1.978491e-20)
(0.094490887 4.0423846e-06 0)
(0.094490905 4.1381098e-06 1.9507862e-20)
(0.094490915 4.2329981e-06 1.936975e-20)
(0.094490936 4.3193476e-06 1.92314e-20)
(0.09449095 4.4051445e-06 -1.9092325e-20)
(0.094490975 4.485195e-06 0)
(0.094490993 4.5587941e-06 1.8810135e-20)
(0.094491022 4.6176798e-06 0)
(0.094491043 4.6885211e-06 1.851915e-20)
(0.094491075 4.7422059e-06 -1.8368982e-20)
(0.094491099 4.8241553e-06 -2.3679383e-18)
(0.094491134 4.8856359e-06 2.3473215e-18)
(0.094491161 4.9856009e-06 -3.578513e-20)
(0.094491199 5.0530544e-06 3.5445891e-20)
(0.094491229 5.1626088e-06 0)
(0.09449127 5.2288466e-06 3.4726344e-20)
(0.094491303 5.345112e-06 2.1979524e-18)
(0.094491348 5.4126529e-06 -4.3445146e-18)
(0.094491383 5.5402488e-06 2.1452915e-18)
(0.094491431 5.6153164e-06 0)
(0.094491468 5.7576394e-06 -2.0870078e-18)
(0.09449152 5.8400149e-06 1.9911587e-18)
(0.09449156 5.9969944e-06 -6.3184083e-20)
(0.094491615 6.0827425e-06 6.2072214e-20)
(0.094491658 6.2915437e-06 -6.0887932e-20)
(0.094491716 6.3166821e-06 -1.0135856e-18)
(0.094491763 6.7177358e-06 1.7479946e-18)
(0.094491828 6.4813567e-06 -9.0891189e-19)
(0.094491884 7.4170479e-06 1.0835523e-19)
(0.094568093 1.4844084e-06 4.2782489e-19)
(0.094521886 -4.301087e-07 -5.7665341e-19)
(0.094508263 6.7811691e-07 -8.2774843e-19)
(0.094503837 1.9332171e-07 -9.6217207e-19)
(0.094502242 5.5595374e-07 3.9002838e-18)
(0.094501589 5.2948618e-07 6.1779001e-20)
(0.094501274 6.8912469e-07 -2.0693072e-18)
(0.094501091 7.6101363e-07 0)
(0.09450096 8.8513914e-07 -1.9397518e-18)
(0.094500856 9.5977035e-07 2.099424e-18)
(0.09450076 1.0653835e-06 2.1285014e-18)
(0.094500674 1.1309001e-06 -4.3797655e-18)
(0.094500589 1.2205595e-06 2.148421e-18)
(0.094500512 1.2833395e-06 -2.2420573e-18)
(0.094500434 1.3696965e-06 2.1965671e-18)
(0.094500363 1.4491507e-06 0)
(0.09450029 1.5429661e-06 -3.5563535e-20)
(0.094500225 1.6309408e-06 2.297047e-18)
(0.094500156 1.7177449e-06 -4.6345513e-18)
(0.094500096 1.8015021e-06 2.3551035e-18)
(0.094500031 1.8776135e-06 2.3742584e-18)
(0.094499976 1.9459428e-06 1.8549864e-20)
(0.094499915 2.0118723e-06 -2.4298978e-18)
(0.094499864 2.0750042e-06 -1.8830715e-20)
(0.094499807 2.1317625e-06 -2.4279084e-18)
(0.09449976 2.1834933e-06 1.2226572e-18)
(0.094499707 2.2323182e-06 1.2313088e-18)
(0.094499665 2.2786642e-06 0)
(0.094499615 2.3199553e-06 1.3875035e-26)
(0.094499577 2.3607305e-06 0)
(0.094499532 2.4019336e-06 -1.9781375e-20)
(0.094499499 2.4432383e-06 -1.29476e-18)
(0.094499457 2.4907473e-06 -2.0059124e-20)
(0.094499429 2.5547169e-06 1.2726579e-18)
(0.094499392 2.6373457e-06 -2.0345038e-20)
(0.094499369 2.7196296e-06 6.5573467e-19)
(0.094499336 2.784913e-06 -6.3987586e-19)
(0.094499318 2.8317868e-06 -3.1190308e-19)
(0.09449929 2.8680669e-06 3.3518353e-19)
(0.094499276 2.9043533e-06 -2.1107513e-20)
(0.094499253 2.9452558e-06 8.4942156e-20)
(0.094499246 2.9887747e-06 -8.4811729e-20)
(0.094499228 3.0334269e-06 -2.1044177e-20)
(0.094499227 3.0819596e-06 3.3421624e-19)
(0.094499215 3.1352015e-06 -3.3177456e-19)
(0.094499218 3.1902335e-06 -6.1758705e-19)
(0.09449921 3.2498823e-06 1.3285563e-18)
(0.094499217 3.3154354e-06 6.4943946e-19)
(0.094499213 3.383584e-06 -1.3300952e-18)
(0.094499223 3.459288e-06 -2.0012964e-20)
(0.094499223 3.5450759e-06 0)
(0.094499237 3.628514e-06 0)
(0.094499241 3.7031253e-06 -1.2741234e-18)
(0.094499258 3.7726029e-06 1.2263938e-18)
(0.094499265 3.8386241e-06 -1.3765103e-26)
(0.094499286 3.8951268e-06 0)
(0.094499297 3.9559004e-06 0)
(0.094499321 4.0074584e-06 -2.4219807e-18)
(0.094499335 4.0671805e-06 2.4041027e-18)
(0.094499362 4.1166887e-06 0)
(0.094499379 4.185541e-06 1.8494526e-20)
(0.094499409 4.2417737e-06 2.3482116e-18)
(0.094499428 4.3258709e-06 7.2767173e-20)
(0.09449946 4.3891762e-06 -2.3442856e-18)
(0.094499482 4.4825932e-06 3.5736329e-20)
(0.094499517 4.5435098e-06 0)
(0.094499542 4.6391296e-06 0)
(0.09449958 4.696953e-06 0)
(0.094499606 4.7995702e-06 -3.4264706e-20)
(0.094499647 4.8621431e-06 2.416253e-26)
(0.094499676 4.978489e-06 -2.138242e-18)
(0.094499719 5.0501241e-06 2.075552e-18)
(0.09449975 5.1803784e-06 6.490409e-20)
(0.094499795 5.2586446e-06 6.385495e-20)
(0.094499828 5.4021694e-06 -1.882093e-18)
(0.094499876 5.4830338e-06 1.9693185e-18)
(0.094499911 5.674806e-06 9.0391258e-19)
(0.094499962 5.6982077e-06 -1.8254539e-18)
(0.094499999 6.0721053e-06 1.1480871e-18)
(0.094500056 5.8471174e-06 -1.1160747e-19)
(0.094500099 6.7430648e-06 1.0618193e-19)
(0.094569615 1.3120917e-06 0)
(0.094526425 -3.7153199e-07 1.1323171e-19)
(0.09451441 5.926466e-07 1.1635124e-19)