/*--------------------------------*- C++ -*----------------------------------*\
| =========                 |                                                 |
| \\      /  F ield         | OpenFOAM: The Open Source CFD Toolbox           |
|  \\    /   O peration     | Version:  v2006                                 |
|   \\  /    A nd           | Website:  www.openfoam.com                      |
|    \\/     M anipulation  |                                                 |
\*---------------------------------------------------------------------------*/
FoamFile
{
    version     2.0;
    format      ascii;
    class       volVectorField;
    location    "5000";
    object      UMean;
}
// * * * * * * * * * * * * * * * * * * * * * * * * * * * * * * * * * * * * * //

dimensions      [0 1 -1 0 0 0 0];


internalField   nonuniform List<vector> 
102907
(
(0.094524158 7.8648075e-07 5.030846e-19)
(0.094429677 -3.6690421e-07 -5.3700557e-19)
(0.094390296 7.1293308e-07 -1.6834325e-20)
(0.094372561 4.2010107e-07 -1.0780389e-18)
(0.09436414 9.3434114e-07 1.0755343e-18)
(0.094359923 9.9062498e-07 2.1436499e-18)
(0.094357657 1.2995118e-06 -4.2860679e-18)
(0.094356339 1.4361465e-06 2.1394985e-18)
(0.09435549 1.7115356e-06 8.3819467e-21)
(0.094354889 1.8534257e-06 0)
(0.094354415 2.1021266e-06 0)
(0.094354016 2.2570175e-06 -2.1864992e-18)
(0.094353656 2.4640269e-06 2.2123834e-18)
(0.094353323 2.6351249e-06 -2.2131406e-18)
(0.094353006 2.8196288e-06 2.240345e-18)
(0.094352704 2.9919989e-06 0)
(0.094352411 3.1658959e-06 -2.2825469e-18)
(0.094352132 3.3341844e-06 4.5897987e-18)
(0.094351861 3.5009615e-06 4.0009137e-28)
(0.094351604 3.6642715e-06 -2.3353549e-18)
(0.094351357 3.8255854e-06 0)
(0.094351125 3.9843215e-06 -2.368998e-18)
(0.094350903 4.1407749e-06 4.7855913e-18)
(0.094350697 4.2951615e-06 2.2178146e-28)
(0.094350503 4.4474881e-06 -2.4359453e-18)
(0.094350326 4.597956e-06 -4.7860477e-21)
(0.09435016 4.7464811e-06 0)
(0.094350012 4.8932212e-06 -1.244584e-18)
(0.094349876 5.0386349e-06 1.2543222e-18)
(0.094349758 5.1828074e-06 0)
(0.094349651 5.325595e-06 1.2789305e-18)
(0.094349563 5.4671778e-06 -1.2888759e-18)
(0.094349485 5.6082041e-06 -1.2938352e-18)
(0.094349426 5.7488914e-06 1.3089753e-18)
(0.094349377 5.8886086e-06 -5.1328266e-21)
(0.094349346 6.0271587e-06 0)
(0.094349323 6.1644152e-06 -3.3362092e-19)
(0.094349316 6.3000956e-06 3.4146316e-19)
(0.094349315 6.4352046e-06 0)
(0.094349324 6.5713056e-06 5.3350253e-21)
(0.094349333 6.7076833e-06 -9.1396637e-20)
(0.094349346 6.8439738e-06 9.1526146e-20)
(0.094349353 6.9788711e-06 -3.424534e-19)
(0.094349367 7.1134834e-06 5.3111245e-21)
(0.094349384 7.2484706e-06 3.4265778e-19)
(0.094349416 7.3838346e-06 6.697518e-19)
(0.094349455 7.5197528e-06 -1.3347208e-18)
(0.094349512 7.6564731e-06 -6.6496222e-19)
(0.094349578 7.7940377e-06 1.3097642e-18)
(0.094349663 7.9326725e-06 1.2999718e-18)
(0.094349759 8.0725031e-06 -1.2902327e-18)
(0.094349874 8.2133735e-06 0)
(0.094349999 8.3557534e-06 0)
(0.094350144 8.499251e-06 0)
(0.0943503 8.644882e-06 -4.8894113e-21)
(0.094350475 8.7915309e-06 0)
(0.09435066 8.9408792e-06 2.4603265e-18)
(0.094350865 9.0912875e-06 -2.4508262e-18)
(0.094351079 9.2452329e-06 4.7401472e-21)
(0.094351311 9.3995972e-06 -4.7028411e-21)
(0.094351553 9.5593172e-06 0)
(0.094351812 9.7179195e-06 0)
(0.094352078 9.8840447e-06 2.3504337e-18)
(0.09435236 1.0047532e-05 -2.3266945e-18)
(0.094352648 1.0221041e-05 0)
(0.09435295 1.0389938e-05 0)
(0.094353257 1.0571906e-05 -2.2825757e-18)
(0.094353575 1.0746874e-05 7.5251504e-28)
(0.094353898 1.093841e-05 2.2443314e-18)
(0.094354232 1.1120432e-05 0)
(0.094354569 1.1322475e-05 -8.5866561e-21)
(0.094354916 1.1513183e-05 0)
(0.094355266 1.1726765e-05 -8.4460313e-21)
(0.094355626 1.1928399e-05 0)
(0.09435599 1.2155339e-05 8.3154289e-21)
(0.094356363 1.2371833e-05 -2.1135372e-18)
(0.09435674 1.26132e-05 2.0997337e-18)
(0.094357121 1.2851527e-05 -1.6310584e-20)
(0.094357497 1.3100824e-05 0)
(0.094357841 1.3380723e-05 5.1789964e-19)
(0.09435809 1.3583026e-05 -5.024259e-19)
(0.094528259 1.2347879e-06 5.2363055e-19)
(0.094438802 -4.0594608e-07 -5.2668485e-19)
(0.094402507 8.9220708e-07 4.9689727e-20)
(0.09438661 3.7840079e-07 3.3220164e-20)
(0.094379253 9.417723e-07 2.158091e-18)
(0.09437563 9.2941034e-07 -2.12133e-18)
(0.094373701 1.2295534e-06 8.2838213e-21)
(0.094372573 1.3529123e-06 -2.1253011e-18)
(0.094371837 1.6051229e-06 2.1267359e-18)
(0.094371302 1.7394416e-06 -1.6786711e-20)
(0.09437087 1.9688004e-06 2.1648549e-18)
(0.094370496 2.1090301e-06 2.6067668e-27)
(0.094370153 2.31033e-06 -2.2097351e-18)
(0.094369831 2.4626446e-06 -8.6726292e-21)
(0.094369521 2.6393471e-06 0)
(0.094369223 2.7956121e-06 2.2677153e-18)
(0.094368934 2.9573042e-06 -2.2827538e-18)
(0.094368655 3.1109133e-06 1.3463024e-20)
(0.094368385 3.2637837e-06 2.3260798e-18)
(0.094368127 3.4125569e-06 -2.3271865e-18)
(0.094367878 3.559381e-06 0)
(0.094367641 3.7031854e-06 -2.388648e-18)
(0.094367416 3.8451861e-06 2.3938911e-18)
(0.094367205 3.9847446e-06 0)
(0.094367005 4.1226552e-06 4.7503452e-21)
(0.094366822 4.2585778e-06 4.78777e-21)
(0.09436665 4.3928064e-06 0)
(0.094366494 4.5257172e-06 1.2448966e-18)
(0.094366352 4.6567457e-06 7.2335029e-28)
(0.094366226 4.7864647e-06 -1.2741542e-18)
(0.094366112 4.9152204e-06 -4.9767492e-21)
(0.094366016 5.0424374e-06 -1.2788654e-18)
(0.094365932 5.1686579e-06 1.2937853e-18)
(0.094365865 5.2944209e-06 6.5697654e-19)
(0.09436581 5.4192062e-06 -6.5178366e-19)
(0.094365771 5.5436856e-06 1.0343598e-20)
(0.094365742 5.6681825e-06 3.3876646e-19)
(0.094365728 5.7911184e-06 -6.7752379e-19)
(0.094365721 5.9127078e-06 3.3344554e-19)
(0.094365723 6.0353907e-06 -5.3337692e-21)
(0.094365726 6.1592219e-06 5.3750343e-21)
(0.09436573 6.283986e-06 -5.3801878e-21)
(0.09436573 6.4073852e-06 0)
(0.094365737 6.529871e-06 -3.4481856e-19)
(0.094365748 6.6526946e-06 -3.475198e-19)
(0.094365773 6.7754901e-06 6.6896589e-19)
(0.094365806 6.8985356e-06 5.1874384e-21)
(0.094365856 7.0224977e-06 5.1488625e-21)
(0.094365917 7.1474578e-06 0)
(0.094365995 7.2739054e-06 1.0144998e-20)
(0.094366085 7.4018977e-06 -1.2888773e-18)
(0.094366192 7.5305927e-06 1.2792447e-18)
(0.094366312 7.6610885e-06 -1.2597355e-18)
(0.094366449 7.7921992e-06 1.2600982e-18)
(0.094366598 7.9264233e-06 -1.245681e-18)
(0.094366764 8.060425e-06 1.2410482e-18)
(0.094366942 8.1987624e-06 2.4678814e-18)
(0.094367136 8.336802e-06 -2.4392615e-18)
(0.094367341 8.4808061e-06 2.4107618e-18)
(0.094367561 8.6223325e-06 -2.3917632e-18)
(0.094367791 8.7741704e-06 0)
(0.094368034 8.9187328e-06 9.2477993e-21)
(0.094368286 9.0782073e-06 -2.348102e-18)
(0.09436855 9.2262584e-06 2.3241212e-18)
(0.094368821 9.394592e-06 -2.3091389e-18)
(0.094369102 9.5465024e-06 2.2805679e-18)
(0.094369388 9.7249084e-06 8.8663888e-21)
(0.094369682 9.8814164e-06 2.2499965e-18)
(0.094369981 1.0071026e-05 -2.2214488e-18)
(0.094370287 1.02334e-05 2.2102957e-18)
(0.094370597 1.0434727e-05 8.5565144e-21)
(0.094370912 1.060567e-05 -4.3584172e-18)
(0.094371232 1.0818586e-05 2.5208947e-20)
(0.094371556 1.1000814e-05 2.131876e-18)
(0.094371887 1.1225779e-05 -2.4761673e-20)
(0.09437222 1.1422307e-05 1.6364756e-20)
(0.09437256 1.165876e-05 0)
(0.094372895 1.1879502e-05 1.6099165e-20)
(0.094373232 1.2119154e-05 0)
(0.094373528 1.2382e-05 0)
(0.094373743 1.2630679e-05 0)
(0.094532299 1.5567728e-06 -5.1298776e-19)
(0.09444751 -5.0307592e-07 5.1663038e-19)
(0.094414109 9.3208234e-07 9.7780484e-19)
(0.094399918 3.1938581e-07 -1.0482019e-18)
(0.094393524 8.8719727e-07 -3.2796353e-20)
(0.094390431 8.5065316e-07 0)
(0.094388796 1.1334429e-06 3.2858568e-20)
(0.094387835 1.2434353e-06 -2.1116084e-18)
(0.094387197 1.4739568e-06 -4.4517171e-27)
(0.09438672 1.5977857e-06 2.1578872e-18)
(0.094386325 1.8055223e-06 0)
(0.094385975 1.9356057e-06 2.1787519e-18)
(0.094385649 2.1172095e-06 -2.1985875e-18)
(0.09438534 2.2574324e-06 0)
(0.09438504 2.417101e-06 0)
(0.09438475 2.5594776e-06 2.2497945e-18)
(0.094384466 2.7059745e-06 -2.2695581e-18)
(0.094384192 2.8452272e-06 -2.6931527e-20)
(0.094383925 2.9836649e-06 2.3086602e-18)
(0.094383669 3.1183855e-06 -2.3462636e-18)
(0.094383421 3.2511676e-06 -1.8409639e-20)
(0.094383184 3.3813003e-06 9.2798302e-21)
(0.094382958 3.5096957e-06 0)
(0.094382745 3.6358077e-06 0)
(0.094382543 3.7604539e-06 -2.4328546e-18)
(0.094382356 3.883263e-06 2.4518816e-18)
(0.09438218 4.0044908e-06 -9.6520535e-21)
(0.094382021 4.1245429e-06 1.2450077e-18)
(0.094381873 4.2430031e-06 -1.2643869e-18)
(0.094381742 4.3601855e-06 9.8766333e-21)
(0.094381624 4.4766938e-06 0)
(0.094381522 4.5920727e-06 0)
(0.094381433 4.7061161e-06 1.0105074e-20)
(0.094381361 4.8194917e-06 -6.5167617e-19)
(0.094381301 4.9321203e-06 6.5667174e-19)
(0.094381257 5.0447656e-06 -6.8239295e-19)
(0.094381224 5.1585794e-06 6.6159629e-19)
(0.094381205 5.2734518e-06 -1.0499155e-20)
(0.094381192 5.3883877e-06 -1.6399381e-19)
(0.094381189 5.5016158e-06 1.7059303e-19)
(0.094381187 5.6122995e-06 8.5956445e-20)
(0.094381186 5.7215616e-06 9.6751588e-20)
(0.09438118 5.8305253e-06 -1.7079086e-19)
(0.094381182 5.9415314e-06 3.3903908e-19)
(0.094381188 6.0536459e-06 -1.0042966e-18)
(0.094381207 6.1662881e-06 6.5760063e-19)
(0.094381235 6.2800534e-06 -6.6308438e-19)
(0.094381279 6.3940609e-06 -6.5817165e-19)
(0.094381335 6.5086911e-06 1.306596e-18)
(0.094381408 6.6234166e-06 -1.2969202e-18)
(0.094381493 6.7392779e-06 -1.0701972e-27)
(0.094381595 6.8555621e-06 2.565481e-18)
(0.094381709 6.9744594e-06 -1.2682347e-18)
(0.09438184 7.0928306e-06 0)
(0.094381982 7.2151619e-06 0)
(0.094382141 7.3353274e-06 -9.6862433e-21)
(0.094382311 7.4624427e-06 0)
(0.094382497 7.5837262e-06 0)
(0.094382692 7.7168513e-06 9.4641418e-21)
(0.094382901 7.8385398e-06 -9.3895797e-21)
(0.094383119 7.9803314e-06 0)
(0.094383349 8.1018942e-06 9.2390778e-21)
(0.094383587 8.2542809e-06 0)
(0.094383835 8.3756874e-06 -1.8172475e-20)
(0.094384088 8.540775e-06 -2.2882226e-18)
(0.09438435 8.6618479e-06 8.9304781e-21)
(0.094384616 8.8410138e-06 2.2482506e-18)
(0.094384889 8.9621662e-06 0)
(0.094385165 9.1567609e-06 -3.4762825e-20)
(0.094385446 9.2790615e-06 2.2039405e-18)
(0.09438573 9.4897207e-06 -2.1828788e-18)
(0.094386018 9.61553e-06 -2.1447703e-18)
(0.094386309 9.8425287e-06 2.0901505e-18)
(0.094386604 9.9748498e-06 3.3107782e-20)
(0.094386902 1.021895e-05 -2.0810939e-18)
(0.094387202 1.0360456e-05 -4.8659556e-20)
(0.094387505 1.0632888e-05 1.0274946e-18)
(0.094387806 1.0768061e-05 1.0488623e-18)
(0.094388104 1.1102305e-05 0)
(0.094388365 1.1196248e-05 -4.9853791e-19)
(0.094388547 1.1542253e-05 4.8130582e-19)
(0.094535675 1.7422605e-06 0)
(0.094455208 -5.5333994e-07 6.3354087e-20)
(0.094424533 9.4025015e-07 1.0582838e-18)
(0.094411925 2.8034382e-07 -1.0012044e-18)
(0.0944064 8.3738501e-07 2.1057066e-18)
(0.094403776 7.8779809e-07 -2.0453779e-18)
(0.094402397 1.0521054e-06 -6.5179004e-20)
(0.094401579 1.1519605e-06 0)
(0.094401024 1.3631285e-06 -3.3045241e-20)
(0.094400598 1.4769079e-06 -2.1338696e-18)
(0.094400236 1.6661962e-06 4.3083147e-18)
(0.094399908 1.7850962e-06 -2.1750273e-18)
(0.094399599 1.950485e-06 0)
(0.094399302 2.077733e-06 -2.2169938e-18)
(0.094399012 2.2230521e-06 2.2202655e-18)
(0.094398731 2.3520054e-06 -2.2582512e-18)
(0.094398455 2.4849406e-06 -4.159014e-27)
(0.094398187 2.6109128e-06 4.6149087e-18)
(0.094397925 2.7363146e-06 -2.3363311e-18)
(0.094397672 2.8580432e-06 0)
(0.094397427 2.9780123e-06 1.8414731e-20)
(0.094397193 3.0955421e-06 0)
(0.094396967 3.2114504e-06 0)
(0.094396754 3.3251846e-06 0)
(0.094396552 3.4375986e-06 1.9009005e-20)
(0.094396363 3.5482914e-06 -1.226005e-18)
(0.094396186 3.6573988e-06 -9.6518002e-21)
(0.094396023 3.7654851e-06 1.244874e-18)
(0.094395873 3.8722247e-06 1.9599138e-20)
(0.094395739 3.9776523e-06 -1.2638587e-18)
(0.094395617 4.0823864e-06 1.2734286e-18)
(0.094395511 4.1861937e-06 0)
(0.094395419 4.2887792e-06 -2.019975e-20)
(0.094395343 4.3908242e-06 6.4111858e-19)
(0.094395279 4.4921425e-06 -6.5624664e-19)
(0.094395231 4.5936934e-06 1.0332037e-20)
(0.094395195 4.696209e-06 1.0411046e-20)
(0.094395171 4.7993354e-06 -3.2521909e-19)
(0.094395156 4.9026179e-06 3.3829412e-19)
(0.094395149 5.0043192e-06 0)
(0.094395143 5.1038128e-06 -8.5881651e-20)
(0.094395136 5.2020419e-06 7.5156004e-20)
(0.094395128 5.3001764e-06 0)
(0.094395124 5.4000984e-06 0)
(0.094395126 5.5008474e-06 0)
(0.09439514 5.6020976e-06 1.2157165e-26)
(0.094395166 5.7045333e-06 0)
(0.094395205 5.8071736e-06 0)
(0.094395258 5.9104278e-06 0)
(0.094395326 6.0136402e-06 -1.3051639e-18)
(0.094395407 6.1181552e-06 1.2855194e-18)
(0.094395505 6.2227991e-06 1.2561123e-18)
(0.094395614 6.3303291e-06 -1.2765228e-18)
(0.09439574 6.436596e-06 1.9644307e-20)
(0.094395877 6.5476369e-06 -1.9497857e-20)
(0.094396029 6.655489e-06 2.9027191e-20)
(0.094396193 6.7710721e-06 -2.4774279e-18)
(0.09439637 6.8798337e-06 2.4394021e-18)
(0.094396556 7.0015343e-06 0)
(0.094396756 7.1104363e-06 -1.8761392e-20)
(0.094396963 7.2403968e-06 -1.86115e-20)
(0.094397181 7.3494744e-06 -2.3813597e-18)
(0.094397405 7.4889726e-06 2.3433079e-18)
(0.094397638 7.5981272e-06 -2.3053139e-18)
(0.094397875 7.7493169e-06 4.5886983e-18)
(0.09439812 7.8585695e-06 -4.5658428e-18)
(0.094398368 8.0225135e-06 2.2798382e-18)
(0.094398621 8.1327428e-06 0)
(0.094398876 8.3105348e-06 1.7340418e-20)
(0.094399136 8.422764e-06 0)
(0.094399396 8.6152037e-06 2.1754172e-18)
(0.094399661 8.7316753e-06 -4.3054616e-18)
(0.094399924 8.9394956e-06 3.3275474e-20)
(0.094400194 9.0624958e-06 2.1061161e-18)
(0.094400461 9.2880333e-06 -2.0821988e-18)
(0.094400734 9.41749e-06 2.0900421e-18)
(0.094401004 9.6845536e-06 9.8483117e-19)
(0.094401277 9.7820203e-06 -1.0354544e-18)
(0.094401538 1.0173071e-05 0)
(0.094401773 1.0128336e-05 0)
(0.094401922 1.0735451e-05 0)
(0.094538594 1.8193352e-06 0)
(0.09446218 -5.7285969e-07 -1.0567376e-18)
(0.094434093 9.1695038e-07 1.0097152e-18)
(0.094422956 2.4690619e-07 9.5527263e-19)
(0.094418217 7.801081e-07 -3.10398e-18)
(0.094416006 7.2530285e-07 2.0246226e-18)
(0.094414849 9.7008207e-07 6.465704e-20)
(0.094414154 1.0613528e-06 0)
(0.094413671 1.2542443e-06 3.2895962e-20)
(0.094413289 1.3590724e-06 3.3231461e-20)
(0.094412956 1.5307657e-06 0)
(0.094412649 1.6403179e-06 2.2052998e-18)
(0.094412356 1.7900753e-06 3.4274057e-20)
(0.094412073 1.9062176e-06 5.1128321e-27)
(0.094411795 2.0379618e-06 -4.4211578e-18)
(0.094411524 2.1549447e-06 2.2578047e-18)
(0.094411257 2.2755131e-06 0)
(0.094410997 2.3895048e-06 1.7958253e-20)
(0.094410742 2.5030558e-06 1.8113757e-20)
(0.094410496 2.6130739e-06 0)
(0.094410255 2.7215325e-06 0)
(0.094410025 2.8276958e-06 -1.8567355e-20)
(0.094409803 2.9323373e-06 2.3955655e-18)
(0.094409593 3.0349399e-06 -2.4143702e-18)
(0.094409392 3.13634e-06 -1.900842e-20)
(0.094409204 3.2361039e-06 -1.2258616e-18)
(0.094409026 3.3344038e-06 1.254474e-18)
(0.094408863 3.43173e-06 1.2444945e-18)
(0.094408712 3.5279203e-06 -2.5174746e-18)
(0.094408577 3.6228306e-06 1.2632258e-18)
(0.094408453 3.7170041e-06 0)
(0.094408346 3.8104751e-06 2.00341e-20)
(0.094408251 3.9029245e-06 1.3018733e-18)
(0.094408173 3.9947228e-06 -1.2811397e-18)
(0.094408107 4.0860169e-06 2.0488656e-20)
(0.094408057 4.1777165e-06 0)
(0.094408018 4.2699856e-06 3.2240506e-19)
(0.094407992 4.362618e-06 4.5297485e-28)
(0.094407974 4.4553574e-06 -4.9631265e-19)
(0.094407965 4.5466601e-06 1.7025828e-19)
(0.094407956 4.6361693e-06 8.5758381e-20)
(0.094407947 4.7245595e-06 -8.573795e-20)
(0.094407934 4.8129933e-06 3.5102516e-19)
(0.094407928 4.9028955e-06 -6.7570575e-19)
(0.094407927 4.9934782e-06 3.3534725e-19)
(0.094407938 5.0845829e-06 1.0402218e-20)
(0.09440796 5.1768646e-06 0)
(0.094407998 5.2692677e-06 -1.3325029e-18)
(0.094408047 5.3623703e-06 1.3024137e-18)
(0.094408112 5.4552194e-06 0)
(0.09440819 5.549589e-06 -1.2834867e-18)
(0.094408284 5.643735e-06 2.5582016e-18)
(0.09440839 5.7410761e-06 -1.2648088e-18)
(0.094408511 5.8365223e-06 -1.2751437e-18)
(0.094408643 5.9373468e-06 1.246259e-18)
(0.09440879 6.03406e-06 -2.4933066e-18)
(0.094408946 6.1393264e-06 4.9299789e-18)
(0.094409116 6.2367436e-06 -2.4367371e-18)
(0.094409295 6.3480406e-06 0)
(0.094409484 6.4457056e-06 1.8742311e-20)
(0.094409681 6.5644485e-06 2.3984643e-18)
(0.094409888 6.6626042e-06 -2.3789253e-18)
(0.094410099 6.7900672e-06 2.3408108e-18)
(0.094410319 6.8885759e-06 -2.3208079e-18)
(0.094410542 7.0266086e-06 0)
(0.094410771 7.1257621e-06 -2.2796485e-18)
(0.094411002 7.2751743e-06 2.2584069e-18)
(0.094411237 7.3759877e-06 0)
(0.094411473 7.537785e-06 0)
(0.094411713 7.6413331e-06 0)
(0.094411953 7.8164643e-06 -2.2019355e-18)
(0.094412196 7.9246536e-06 4.3213489e-18)
(0.094412438 8.1142913e-06 3.3110725e-20)
(0.094412683 8.2288176e-06 -2.1262147e-18)
(0.094412927 8.4367923e-06 0)
(0.094413173 8.5549412e-06 1.9761583e-18)
(0.094413417 8.8130806e-06 -2.9862268e-18)
(0.094413662 8.8826437e-06 6.195794e-20)
(0.094413896 9.3027949e-06 9.762257e-19)
(0.094414105 9.1672079e-06 0)
(0.094414232 9.9539014e-06 0)
(0.094540985 1.8134585e-06 4.542453e-19)
(0.094468408 -5.6602854e-07 -4.879895e-19)
(0.09444279 8.7212777e-07 6.2092939e-20)
(0.094433017 2.2206682e-07 1.0673658e-18)
(0.094428985 7.2155813e-07 -1.0115191e-18)
(0.094427136 6.6845335e-07 0)
(0.09442617 8.9313476e-07 -3.2075746e-20)
(0.094425581 9.7757311e-07 0)
(0.094425159 1.1534573e-06 -2.0960967e-18)
(0.094424816 1.2501291e-06 2.086831e-18)
(0.094424509 1.4056933e-06 0)
(0.094424222 1.5064535e-06 -2.20163e-18)
(0.094423945 1.642042e-06 -3.4234738e-20)
(0.094423676 1.7476367e-06 4.4273773e-18)
(0.094423411 1.8672296e-06 -2.2706999e-18)
(0.094423151 1.9731249e-06 3.5269706e-20)
(0.094422894 2.0823752e-06 2.2426225e-18)
(0.094422644 2.1854127e-06 -2.298687e-18)
(0.094422398 2.2882001e-06 0)
(0.094422159 2.387549e-06 0)
(0.094421927 2.4855013e-06 -1.8419282e-20)
(0.094421702 2.5812758e-06 1.8567958e-20)
(0.094421486 2.6757068e-06 -2.3767809e-18)
(0.094421279 2.7681431e-06 2.414113e-18)
(0.094421082 2.8594695e-06 0)
(0.094420896 2.949389e-06 1.2254976e-18)
(0.094420722 3.0378279e-06 -1.2346759e-18)
(0.09442056 3.1253111e-06 1.9435217e-20)
(0.09442041 3.2118946e-06 -1.9578958e-20)
(0.094420274 3.2972333e-06 0)
(0.094420151 3.3818646e-06 -1.9868595e-20)
(0.094420043 3.4659124e-06 -2.0015049e-20)
(0.094419948 3.549084e-06 1.2702611e-18)
(0.094419868 3.6316823e-06 -1.3406133e-18)
(0.094419802 3.7139403e-06 6.3437058e-19)
(0.09441975 3.7965185e-06 -6.5973638e-19)
(0.094419711 3.8794525e-06 0)
(0.094419683 3.9625741e-06 -2.0929444e-20)
(0.094419665 4.0456809e-06 1.7925716e-19)
(0.094419653 4.1275211e-06 -1.7000725e-19)
(0.094419642 4.2080003e-06 2.1400822e-20)
(0.094419631 4.2874597e-06 -1.7110831e-19)
(0.094419617 4.3670955e-06 -1.8044175e-19)
(0.094419608 4.4478614e-06 3.3712724e-19)
(0.094419605 4.5292314e-06 0)
(0.094419615 4.6111581e-06 2.0760769e-20)
(0.094419635 4.6941935e-06 0)
(0.09441967 4.7772039e-06 1.9720572e-26)
(0.094419717 4.8611372e-06 2.0310751e-20)
(0.09441978 4.9444284e-06 0)
(0.094419855 5.0296629e-06 1.2811901e-18)
(0.094419945 5.1140859e-06 -2.5439007e-18)
(0.094420048 5.2021534e-06 2.5452535e-18)
(0.094420165 5.2875966e-06 -1.2536052e-18)
(0.094420293 5.3792502e-06 1.9444732e-20)
(0.094420434 5.4656785e-06 -2.4706233e-18)
(0.094420585 5.5616309e-06 -3.8257331e-27)
(0.094420747 5.6488336e-06 4.8676014e-18)
(0.094420918 5.7503628e-06 -2.4151863e-18)
(0.094421099 5.8381368e-06 2.3963719e-18)
(0.094421287 5.9462466e-06 -2.358735e-18)
(0.094421482 6.034702e-06 1.8421421e-20)
(0.094421682 6.1508079e-06 -2.3382186e-18)
(0.094421889 6.2398983e-06 2.3361955e-18)
(0.094422099 6.3654795e-06 -3.5898223e-20)
(0.094422313 6.4556513e-06 2.2763661e-18)
(0.094422529 6.591417e-06 -2.2898921e-18)
(0.094422748 6.6837181e-06 2.2323137e-18)
(0.094422968 6.8307402e-06 -4.4185393e-18)
(0.09442319 6.9261883e-06 2.185447e-18)
(0.094423412 7.0855138e-06 2.160791e-18)
(0.094423635 7.1857482e-06 -4.2704522e-18)
(0.094423859 7.3587993e-06 2.1086729e-18)
(0.094424082 7.4651884e-06 3.251635e-20)
(0.094424306 7.6569911e-06 0)
(0.09442453 7.7646715e-06 6.3193173e-20)
(0.094424752 8.0114311e-06 9.3313966e-19)
(0.094424972 8.061297e-06 -1.0399999e-18)
(0.094425184 8.4920743e-06 -1.0215054e-18)
(0.094425371 8.2989203e-06 1.3555669e-18)
(0.094425481 9.1941719e-06 -4.5182786e-19)
(0.094542873 1.7415443e-06 1.1130565e-19)
(0.094473973 -5.3936461e-07 -1.1973229e-19)
(0.094450722 8.0926193e-07 -6.1095438e-20)
(0.094442214 2.0216063e-07 -6.1898793e-20)
(0.094438814 6.6028255e-07 0)
(0.094437281 6.1406285e-07 -2.0161256e-18)
(0.094436479 8.1842287e-07 1.9735331e-18)
(0.094435979 8.9730004e-07 0)
(0.09443561 1.0570595e-06 0)
(0.0944353 1.1463889e-06 0)
(0.094435018 1.286986e-06 0)
(0.09443475 1.3796414e-06 2.1303552e-18)
(0.094434489 1.502232e-06 5.5359575e-27)
(0.094434233 1.5983056e-06 -2.2119711e-18)
(0.094433982 1.706665e-06 0)
(0.094433734 1.8024998e-06 -7.051938e-20)
(0.09443349 1.9014802e-06 7.1184209e-20)
(0.09443325 1.9944961e-06 -1.7957509e-20)
(0.094433015 2.0873529e-06 0)
(0.094432785 2.1769069e-06 -2.3383362e-18)
(0.094432561 2.2652508e-06 2.3759978e-18)
(0.094432344 2.3514973e-06 0)
(0.094432135 2.4365665e-06 -1.8711658e-20)
(0.094431934 2.5196986e-06 0)
(0.094431743 2.6018225e-06 -2.4506997e-18)
(0.094431561 2.6827549e-06 2.4498094e-18)
(0.094431391 2.7622961e-06 -1.2339275e-18)
(0.094431232 2.840836e-06 -3.8841995e-20)
(0.094431085 2.9186267e-06 1.2519771e-18)
(0.09443095 2.995331e-06 -1.9703889e-20)
(0.094430829 3.0713918e-06 -1.2503347e-18)
(0.094430722 3.1468629e-06 1.2594011e-18)
(0.094430628 3.2217098e-06 1.2886979e-18)
(0.094430548 3.2960527e-06 -1.2778326e-18)
(0.094430483 3.3701448e-06 0)
(0.09443043 3.4443566e-06 -6.3808596e-19)
(0.094430391 3.5187425e-06 6.6358258e-19)
(0.094430363 3.5932066e-06 3.5517914e-19)
(0.094430344 3.6675339e-06 -5.2628224e-19)
(0.094430331 3.7408212e-06 8.4848695e-20)
(0.09443032 3.8130937e-06 6.4065266e-20)
(0.094430306 3.8844836e-06 0)
(0.094430292 3.9561686e-06 3.388223e-19)
(0.094430281 4.028575e-06 -3.3630444e-19)
(0.094430279 4.1017331e-06 -6.8851416e-19)
(0.094430286 4.1752428e-06 1.3048208e-18)
(0.094430306 4.2498553e-06 -6.3739247e-19)
(0.094430338 4.3243495e-06 2.0412741e-20)
(0.094430385 4.4000065e-06 -1.3173102e-18)
(0.094430444 4.4745249e-06 1.2877801e-18)
(0.094430518 4.5516504e-06 1.2985861e-18)
(0.094430605 4.6271475e-06 -2.5191825e-18)
(0.094430705 4.7069633e-06 1.2407703e-18)
(0.094430817 4.7832455e-06 -1.9553969e-20)
(0.094430942 4.8666122e-06 0)
(0.094431076 4.9437413e-06 -1.9272547e-20)
(0.094431222 5.0310935e-06 1.9131154e-20)
(0.094431377 5.1091272e-06 -2.4305628e-18)
(0.094431541 5.201428e-06 -1.8844951e-20)
(0.094431712 5.2801928e-06 2.3935056e-18)
(0.094431891 5.3785373e-06 -3.7102463e-20)
(0.094432075 5.458165e-06 1.840036e-20)
(0.094432266 5.563763e-06 0)
(0.094432459 5.6442675e-06 -5.426435e-20)
(0.094432658 5.7583393e-06 7.1702682e-20)
(0.094432857 5.8403463e-06 -3.5516498e-20)
(0.094433061 5.9635177e-06 3.5170593e-20)
(0.094433264 6.047965e-06 -2.2627952e-18)
(0.09443347 6.1813467e-06 2.2041849e-18)
(0.094433676 6.269275e-06 -2.21347e-18)
(0.094433882 6.4139471e-06 2.1872462e-18)
(0.094434088 6.5067373e-06 -3.3228435e-20)
(0.094434295 6.6643743e-06 -2.1311588e-18)
(0.0944345 6.7630777e-06 2.0364084e-18)
(0.094434705 6.9394753e-06 0)
(0.094434909 7.0379355e-06 -6.2646818e-20)
(0.094435112 7.2707395e-06 1.2312233e-19)
(0.094435312 7.3079902e-06 0)
(0.094435504 7.7333174e-06 5.9184311e-20)
(0.094435674 7.510892e-06 5.7874219e-20)
(0.09443577 8.453959e-06 -1.1064456e-19)
(0.094544244 1.619923e-06 -1.0911192e-19)
(0.094478915 -4.9758068e-07 1.1752497e-19)
(0.094457938 7.3300581e-07 -1.2022834e-19)
(0.0944506 1.86535e-07 0)
(0.094447763 5.9790015e-07 6.1702316e-20)
(0.094446504 5.6243461e-07 1.9342492e-18)
(0.094445841 7.4659241e-07 -3.9809334e-18)
(0.094445417 8.2074909e-07 -6.4770856e-27)
(0.094445093 9.6554283e-07 2.0134599e-18)
(0.094444813 1.048032e-06 2.1067013e-18)
(0.094444553 1.1747153e-06 -2.1341669e-18)
(0.094444303 1.260023e-06 6.751844e-20)
(0.094444058 1.3703713e-06 3.4155071e-20)
(0.094443817 1.4576319e-06 2.2447308e-18)
(0.094443579 1.555521e-06 -2.2334878e-18)
(0.094443345 1.6419592e-06 3.5247982e-20)
(0.094443113 1.7313503e-06 -2.2774341e-18)
(0.094442885 1.8150784e-06 2.2982678e-18)
(0.094442661 1.8989293e-06 0)
(0.094442442 1.9794584e-06 -1.8266243e-20)
(0.094442228 2.0590774e-06 0)
(0.094442021 2.1366586e-06 -1.8562072e-20)
(0.09444182 2.2132132e-06 1.870574e-20)
(0.094441627 2.2879477e-06 0)
(0.094441443 2.3616971e-06 1.5000161e-26)
(0.094441268 2.434326e-06 -1.2240718e-18)
(0.094441102 2.5057905e-06 -1.9264328e-20)
(0.094440948 2.5761833e-06 1.261152e-18)
(0.094440805 2.6459108e-06 1.5442104e-26)
(0.094440674 2.7147205e-06 1.9679377e-20)
(0.094440556 2.7829048e-06 1.9819139e-20)
(0.094440451 2.8505665e-06 -1.2574941e-18)
(0.094440359 2.9178009e-06 1.3066891e-18)
(0.094440281 2.9846023e-06 0)
(0.094440217 3.0511512e-06 -6.3221979e-19)
(0.094440165 3.1175736e-06 1.2942239e-18)
(0.094440127 3.1841907e-06 -1.0140455e-18)
(0.094440099 3.250719e-06 3.1273551e-19)
(0.09444008 3.3170706e-06 0)
(0.094440067 3.3826132e-06 0)
(0.094440056 3.4474695e-06 0)
(0.094440042 3.5113898e-06 0)
(0.094440027 3.5758333e-06 2.1117682e-20)
(0.094440015 3.6405227e-06 3.3537777e-19)
(0.094440012 3.7063228e-06 -9.7794072e-19)
(0.094440019 3.7720678e-06 6.4033638e-19)
(0.094440038 3.8391722e-06 -6.9724702e-19)
(0.094440069 3.9057092e-06 1.9546398e-18)
(0.094440114 3.9738724e-06 2.0216492e-20)
(0.094440172 4.0402792e-06 -1.2847369e-18)
(0.094440244 4.110139e-06 -1.9933105e-20)
(0.094440327 4.1772866e-06 -1.9793444e-20)
(0.094440424 4.2497516e-06 0)
(0.094440532 4.3176077e-06 1.9516498e-20)
(0.094440652 4.3932869e-06 1.9378436e-20)
(0.094440781 4.4619218e-06 1.9240135e-20)
(0.094440921 4.5412305e-06 -1.9101108e-20)
(0.094441069 4.6108808e-06 0)
(0.094441225 4.6946673e-06 1.881901e-20)
(0.094441388 4.7652099e-06 0)
(0.094441558 4.8545143e-06 1.8528111e-20)
(0.094441732 4.9261096e-06 -1.8377983e-20)
(0.094441912 5.0217947e-06 -2.3691132e-18)
(0.094442094 5.0947589e-06 2.3485007e-18)
(0.094442281 5.1978102e-06 -3.580333e-20)
(0.094442468 5.2725528e-06 3.5464138e-20)
(0.094442659 5.3838463e-06 0)
(0.094442849 5.4611594e-06 3.4744648e-20)
(0.094443041 5.5818011e-06 2.1991244e-18)
(0.094443233 5.6626588e-06 -4.3468572e-18)
(0.094443425 5.7937838e-06 2.146461e-18)
(0.094443616 5.8794297e-06 0)
(0.094443807 6.0228695e-06 -2.0881695e-18)
(0.094443996 6.1140894e-06 1.9922781e-18)
(0.094444186 6.2759102e-06 -6.3219944e-20)
(0.094444372 6.3661941e-06 6.2107764e-20)
(0.094444559 6.5830079e-06 -6.0923105e-20)
(0.094444741 6.6135579e-06 -1.0141759e-18)
(0.094444916 7.0202745e-06 1.7490202e-18)
(0.094445071 6.792027e-06 -9.0944903e-19)
(0.094445158 7.7320183e-06 1.084022e-19)
(0.094545098 1.4624076e-06 4.2791562e-19)
(0.094483282 -4.4583905e-07 -5.7686455e-19)
(0.094464499 6.4711433e-07 -8.280859e-19)
(0.094458236 1.7317448e-07 -9.625737e-19)
(0.094455897 5.3449422e-07 3.9019162e-18)
(0.094454871 5.1218897e-07 6.1804707e-20)
(0.094454328 6.7653485e-07 -2.0701586e-18)
(0.094453966 7.4682644e-07 0)
(0.094453682 8.7700923e-07 -1.9405246e-18)
(0.094453427 9.5346948e-07 2.1002447e-18)
(0.094453188 1.0670402e-06 2.1293173e-18)
(0.094452954 1.1453385e-06 -4.3814102e-18)
(0.094452727 1.2445495e-06 2.1492111e-18)
(0.0944525 1.3236036e-06 -2.2428642e-18)
(0.094452277 1.4118576e-06 2.1973404e-18)
(0.094452055 1.489653e-06 0)
(0.094451838 1.5702968e-06 -3.5575505e-20)
(0.094451621 1.645437e-06 2.2978025e-18)
(0.094451411 1.7208735e-06 -4.6360408e-18)
(0.094451202 1.7931457e-06 2.3558428e-18)
(0.094451001 1.8646823e-06 2.3749861e-18)
(0.094450803 1.9341207e-06 1.8555414e-20)
(0.094450613 2.0028345e-06 -2.4306073e-18)
(0.094450428 2.0697519e-06 -1.8836077e-20)
(0.094450253 2.1358042e-06 -2.4285827e-18)
(0.094450084 2.2007561e-06 1.2229882e-18)
(0.094449927 2.2647861e-06 1.2316336e-18)
(0.094449778 2.3277648e-06 0)
(0.094449642 2.3901558e-06 1.3885508e-26)
(0.094449515 2.4517821e-06 0)
(0.094449401 2.512907e-06 -1.9786059e-20)
(0.094449299 2.5733967e-06 -1.2950581e-18)
(0.094449211 2.6336388e-06 -2.0063615e-20)
(0.094449135 2.6934829e-06 1.2729348e-18)
(0.094449073 2.7530609e-06 -2.034934e-20)
(0.094449023 2.8122816e-06 6.5586936e-19)
(0.094448986 2.87173e-06 -6.4000353e-19)
(0.094448959 2.9309138e-06 -3.1196351e-19)
(0.094448942 2.9900799e-06 3.3524658e-19)
(0.094448928 3.0484277e-06 -2.1111366e-20)
(0.094448918 3.1066327e-06 8.4965082e-20)
(0.094448903 3.1636414e-06 -8.4842483e-20)
(0.094448889 3.2215358e-06 -2.1051898e-20)
(0.094448877 3.2792256e-06 3.343404e-19)
(0.094448874 3.3384272e-06 -3.3189938e-19)
(0.09444888 3.3969053e-06 -6.1782242e-19)
(0.094448899 3.4572757e-06 1.3290693e-18)
(0.094448929 3.5164124e-06 6.4969359e-19)
(0.094448973 3.5777576e-06 -1.3306227e-18)
(0.094449029 3.6367672e-06 -2.0021007e-20)
(0.094449098 3.6998972e-06 0)
(0.094449179 3.759504e-06 0)
(0.094449273 3.8249586e-06 -1.2746565e-18)
(0.094449376 3.8853615e-06 1.2269138e-18)
(0.094449491 3.9536628e-06 -1.3808036e-26)
(0.094449614 4.0147307e-06 0)
(0.094449748 4.0865382e-06 0)
(0.094449888 4.1485677e-06 -2.4230644e-18)
(0.094450038 4.2244245e-06 2.4051931e-18)
(0.094450192 4.2874607e-06 0)
(0.094450353 4.3682944e-06 1.8503144e-20)
(0.094450517 4.4325374e-06 2.3493206e-18)
(0.094450687 4.5189605e-06 7.2801999e-20)
(0.094450858 4.5848509e-06 -2.3454224e-18)
(0.094451034 4.6778097e-06 3.5753886e-20)
(0.094451209 4.745678e-06 0)
(0.094451388 4.846024e-06 0)
(0.094451566 4.9165844e-06 0)
(0.094451746 5.0254639e-06 -3.4282402e-20)
(0.094451924 5.0995806e-06 2.4239201e-26)
(0.094452103 5.2181867e-06 -2.1393724e-18)
(0.094452281 5.2969276e-06 2.0766617e-18)
(0.094452458 5.4272183e-06 6.4939167e-20)
(0.094452633 5.51118e-06 6.3889819e-20)
(0.094452808 5.6591086e-06 -1.8831311e-18)
(0.094452981 5.7421059e-06 1.9704149e-18)
(0.094453152 5.9413528e-06 9.044203e-19)
(0.094453319 5.9699022e-06 -1.8264877e-18)
(0.09445348 6.3477044e-06 1.1487423e-18)
(0.094453623 6.1320906e-06 -1.1167162e-19)
(0.094453702 7.0291301e-06 1.0622789e-19)
(0.094545421 1.2810275e-06 0)
(0.094487113 -3.8826836e-07 1.1327402e-19)
(0.094470444 5.5543306e-07 1.1639905e-19)