/*--------------------------------*- C++ -*----------------------------------*\
| =========                 |                                                 |
| \\      /  F ield         | OpenFOAM: The Open Source CFD Toolbox           |
|  \\    /   O peration     | Version:  v2006                                 |
|   \\  /    A nd           | Website:  www.openfoam.com                      |
|    \\/     M anipulation  |                                                 |
\*---------------------------------------------------------------------------*/
FoamFile
{
    version     2.0;
    format      ascii;
    class       volVectorField;
    location    "5000";
    object      wallShearStress;
}
// * * * * * * * * * * * * * * * * * * * * * * * * * * * * * * * * * * * * * //

dimensions      [1 -1 -2 0 0 0 0];


internalField   uniform (0 0 0);

boundaryField
{
    Side
    {
        type            empty;
    }
    Ground
    {
        type            calculated;
        value           uniform (0 0 0);
    }
    Inlet
    {
        type            calculated;
        value           uniform (0 0 0);
    }
    Airfoil
    {
        type            calculated;
        value           nonuniform List<vector> 
646
(
(-2.9561965e-07 -1.0610621e-06 -2.0965672e-20)
(8.7967062e-07 4.1356297e-07 -2.5509438e-20)
(4.4995645e-06 1.2420747e-06 -1.3027436e-20)
(2.8107995e-06 7.29132e-07 -1.3257378e-20)
(3.6384378e-06 9.8040121e-07 -1.3461712e-20)
(3.3508176e-06 9.5594507e-07 -1.1479437e-41)
(3.6414911e-06 1.0308192e-06 -1.3814091e-20)
(3.4522499e-06 9.6828664e-07 -3.413089e-24)
(3.3692449e-06 9.1654762e-07 7.1746481e-42)
(3.2027567e-06 8.7001373e-07 -6.9827351e-24)
(3.1788317e-06 8.5810846e-07 -2.8913034e-20)
(3.1159985e-06 8.4032567e-07 -1.4579784e-20)
(3.1385978e-06 8.4312451e-07 -1.4723815e-20)
(3.1088806e-06 8.2005078e-07 -7.2575189e-24)
(3.1184895e-06 8.19029e-07 1.4994457e-20)
(3.1128339e-06 7.9837928e-07 -4.2317797e-37)
(3.1052071e-06 7.940145e-07 1.1754944e-38)
(3.1211897e-06 7.8778295e-07 -7.6791434e-21)
(3.1258553e-06 7.8569482e-07 7.7379133e-21)
(3.145455e-06 7.8376246e-07 7.7967927e-21)
(3.1494113e-06 7.793256e-07 -4.5917748e-41)
(3.1733348e-06 7.8159051e-07 7.9107806e-21)
(3.1782058e-06 7.7114701e-07 1.5559474e-23)
(3.1838144e-06 7.7046185e-07 -8.0220992e-21)
(3.2064437e-06 7.6612566e-07 8.0456522e-21)
(3.2000896e-06 7.5597287e-07 -8.0988114e-21)
(3.2217642e-06 7.5807628e-07 8.1524446e-21)
(3.2323234e-06 7.4564951e-07 3.2174202e-23)
(3.221816e-06 7.3727955e-07 -1.6192216e-23)
(3.2485094e-06 7.3990567e-07 -8.3488956e-21)
(3.2531288e-06 7.2562343e-07 5.8774718e-39)
(3.2438983e-06 7.1904519e-07 -1.6506449e-23)
(3.2661271e-06 7.2053055e-07 1.7020603e-20)
(3.2706715e-06 7.0876516e-07 -8.5682754e-21)
(3.2628843e-06 7.01789e-07 -8.5669138e-21)
(3.2759232e-06 7.0126867e-07 -8.6764968e-21)
(3.2812026e-06 6.9359415e-07 8.7118624e-21)
(3.2772395e-06 6.8500476e-07 -8.7596842e-21)
(3.2765433e-06 6.8191777e-07 1.7200929e-23)
(3.2914315e-06 6.7916049e-07 -1.7294169e-23)
(3.280484e-06 6.6378559e-07 -7.9933616e-37)
(3.2771743e-06 6.5957255e-07 -1.7929378e-20)
(3.2827155e-06 6.5693301e-07 6.4652189e-38)
(3.2864316e-06 6.4328849e-07 -1.7688467e-23)
(3.2664605e-06 6.3001527e-07 -9.0916124e-21)
(3.2684457e-06 6.2540846e-07 9.1485991e-21)
(3.2708804e-06 6.216021e-07 3.3897042e-28)
(3.263901e-06 5.9644923e-07 1.8076935e-23)
(3.2401909e-06 5.8659268e-07 9.3081373e-21)
(3.2430911e-06 5.8107112e-07 5.8774718e-39)
(3.2381415e-06 5.7466037e-07 -2.0571151e-38)
(3.2239535e-06 5.4650931e-07 -9.4515981e-21)
(3.2032293e-06 5.3852104e-07 -9.510376e-21)
(3.1980824e-06 5.3097957e-07 -6.0244085e-37)
(3.1873424e-06 5.2329766e-07 0)
(3.16444e-06 4.9606154e-07 1.4693679e-37)
(3.1491787e-06 4.875621e-07 9.6953383e-21)
(3.1303883e-06 4.7756039e-07 1.9055044e-23)
(3.1174403e-06 4.6855628e-07 -1.913603e-23)
(3.0815775e-06 4.4377199e-07 1.9251437e-23)
(3.0701534e-06 4.3190541e-07 4.9540107e-21)
(3.0337848e-06 4.1874935e-07 4.9743614e-21)
(3.0214382e-06 4.0790713e-07 1.0071581e-27)
(2.9658284e-06 3.8394001e-07 2.4522723e-45)
(2.9495454e-06 3.630727e-07 1.1754944e-38)
(2.9007353e-06 3.4755455e-07 -1.0141597e-20)
(2.8799685e-06 3.3335367e-07 5.1060521e-21)
(2.8244894e-06 3.1699698e-07 -1.1975349e-37)
(2.7417828e-06 2.757702e-07 1.0291712e-20)
(2.7373887e-06 2.6297127e-07 -2.0571151e-38)
(2.6633784e-06 2.4201738e-07 -2.0319103e-23)
(2.6367487e-06 2.2384459e-07 4.0793407e-23)
(2.5254343e-06 1.9000614e-07 -4.1046067e-23)
(2.4533666e-06 1.518825e-07 5.2781386e-21)
(2.4213335e-06 1.3392556e-07 5.3180632e-21)
(2.350504e-06 1.105072e-07 -6.4105768e-37)
(2.2875984e-06 8.8274671e-08 5.3333981e-21)
(2.1415124e-06 5.1571484e-08 5.3949355e-21)
(2.0696423e-06 1.9700088e-08 -2.1113792e-23)
(2.0091847e-06 -5.0856847e-09 -5.4098123e-21)
(1.9282866e-06 -3.0854077e-08 -5.4503497e-21)
(1.8285229e-06 -5.9111903e-08 2.3188463e-39)
(1.6523359e-06 -9.688348e-08 -5.5084017e-21)
(1.5519641e-06 -1.2839673e-07 5.5276558e-21)
(1.470838e-06 -1.5549095e-07 2.9387359e-39)
(1.3552827e-06 -1.8395343e-07 -3.6734198e-39)
(1.2322406e-06 -2.2010426e-07 5.605067e-21)
(9.93225e-07 -2.7363228e-07 4.4081038e-39)
(8.1115018e-07 -3.1655191e-07 -5.6642365e-21)
(7.5502014e-07 -3.4605063e-07 -3.6734198e-39)
(5.373083e-07 -3.8633547e-07 3.5999514e-38)
(4.5659194e-07 -4.3152141e-07 5.7426396e-21)
(4.6130844e-08 -4.9050381e-07 -5.7845783e-21)
(-3.2321887e-07 -5.5809168e-07 2.265854e-23)
(-3.2915589e-07 -5.9653351e-07 -5.8225951e-21)
(-6.0390293e-07 -6.5455321e-07 -6.6121557e-39)
(-7.3333306e-07 -7.1100432e-07 0)
(-1.1595367e-06 -7.8808072e-07 0)
(-1.7357272e-06 -8.6318318e-07 -1.8367099e-39)
(-1.9458157e-06 -9.1656127e-07 -2.9785086e-21)
(-2.0794565e-06 -9.7159103e-07 -3.6734198e-39)
(-2.4112046e-06 -1.0312282e-06 2.3022101e-39)
(-2.5404277e-06 -1.1048563e-06 -3.4438311e-41)
(-3.2948202e-06 -1.1803968e-06 -2.3638609e-23)
(-3.9314004e-06 -1.2336202e-06 2.3741868e-23)
(-3.9263836e-06 -1.2930252e-06 -6.1361235e-21)
(-4.2518913e-06 -1.3557837e-06 2.3950943e-23)
(-4.5390718e-06 -1.4246164e-06 3.0560388e-21)
(-4.895414e-06 -1.5095659e-06 2.4186601e-23)
(-5.6973685e-06 -1.5784632e-06 2.4256102e-23)
(-6.2387385e-06 -1.6306757e-06 3.0720944e-21)
(-6.3558183e-06 -1.7019355e-06 2.4497711e-23)
(-6.7278834e-06 -1.772201e-06 -3.1452531e-21)
(-7.0648906e-06 -1.8530076e-06 -3.1878625e-21)
(-7.5652263e-06 -1.94741e-06 3.200819e-21)
(-8.5199043e-06 -2.0087175e-06 3.1850764e-21)
(-9.089493e-06 -2.0565426e-06 -3.2298539e-21)
(-9.2553282e-06 -2.139259e-06 -3.1917596e-21)
(-9.6715883e-06 -2.2178576e-06 1.102026e-39)
(-1.0081158e-05 -2.3108687e-06 -2.6150158e-38)
(-1.0635022e-05 -2.4251441e-06 -2.5454904e-23)
(-1.1916006e-05 -2.4781798e-06 3.2937577e-21)
(-1.268683e-05 -2.5046153e-06 3.2897472e-21)
(-1.2784041e-05 -2.6006045e-06 -3.3259768e-21)
(-1.3224485e-05 -2.686189e-06 2.5881757e-23)
(-1.3730933e-05 -2.7742007e-06 6.6662489e-21)
(-1.4083399e-05 -2.9237481e-06 -2.1305835e-38)
(-1.5798774e-05 -2.9707788e-06 -3.3552218e-21)
(-1.7038852e-05 -2.9239229e-06 6.3961988e-40)
(-1.6915362e-05 -3.0420793e-06 -3.3857467e-21)
(-1.7392001e-05 -3.1233193e-06 3.3876833e-21)
(-1.78743e-05 -3.2131846e-06 -3.4198142e-21)
(-1.8262897e-05 -3.3583905e-06 -3.4306148e-21)
(-1.9694645e-05 -3.4344511e-06 -3.4317896e-21)
(-2.1319446e-05 -3.375817e-06 3.4761817e-21)
(-2.1649811e-05 -3.4333873e-06 -1.3571334e-23)
(-2.1919051e-05 -3.5314978e-06 -2.2550816e-40)
(-2.2384573e-05 -3.6221898e-06 -1.3707798e-23)
(-2.2919124e-05 -3.7272906e-06 3.5346066e-21)
(-2.3537622e-05 -3.885265e-06 1.3814978e-23)
(-2.5597299e-05 -3.8639726e-06 1.7629948e-21)
(-2.6890394e-05 -3.7631501e-06 -1.7827641e-21)
(-2.6763279e-05 -3.9033399e-06 6.4101176e-38)
(-2.7265377e-05 -3.9852116e-06 1.4070436e-23)
(-2.7774811e-05 -4.0794156e-06 -1.939489e-27)
(-2.8280758e-05 -4.2190388e-06 3.6187072e-21)
(-2.9553175e-05 -4.3101075e-06 -7.3468397e-40)
(-3.1500327e-05 -4.2173323e-06 -9.3488535e-38)
(-3.2248762e-05 -4.2018561e-06 1.8253696e-21)
(-3.238447e-05 -4.3234766e-06 1.4448775e-23)
(-3.2904053e-05 -4.4096657e-06 1.8412543e-21)
(-3.3482676e-05 -4.5042091e-06 1.8794177e-21)
(-3.4000554e-05 -4.6603968e-06 -1.8747574e-21)
(-3.5597854e-05 -4.7060713e-06 -2.8153392e-27)
(-3.74084e-05 -4.584624e-06 3.4438311e-41)
(-3.7880618e-05 -4.632003e-06 -1.4838743e-23)
(-3.821152e-05 -4.7417669e-06 1.9212487e-21)
(-3.878158e-05 -4.832724e-06 4.7754458e-39)
(-3.9419026e-05 -4.9311154e-06 1.5047193e-23)
(-3.9996169e-05 -5.0920457e-06 -1.5102138e-23)
(-4.1683679e-05 -5.1275364e-06 1.5151625e-23)
(-4.3496294e-05 -5.001509e-06 -2.0172861e-27)
(-4.3973065e-05 -5.063996e-06 1.9436807e-21)
(-4.4381307e-05 -5.1785975e-06 -1.5360613e-23)
(-4.5002804e-05 -5.2786356e-06 -1.963429e-21)
(-4.5696114e-05 -5.3884876e-06 -3.1281886e-27)
(-4.6324391e-05 -5.5786356e-06 3.9882232e-21)
(-4.8329931e-05 -5.6229445e-06 -1.5655109e-23)
(-5.0928085e-05 -5.3859787e-06 4.0264856e-21)
(-5.1629416e-05 -5.3647535e-06 2.0366939e-21)
(-5.1749232e-05 -5.5151137e-06 1.5865262e-23)
(-5.2323871e-05 -5.6173943e-06 -1.5959762e-23)
(-5.2979494e-05 -5.7356392e-06 -3.2960204e-27)
(-5.3637856e-05 -5.9278829e-06 -2.0583359e-21)
(-5.5296364e-05 -6.0981146e-06 2.0711673e-21)
(-5.9500516e-05 -5.7100639e-06 2.0609344e-21)
(-6.128426e-05 -5.3441555e-06 1.0589383e-21)
(-6.0544219e-05 -5.6026753e-06 3.0489385e-38)
(-6.0964383e-05 -5.6868e-06 1.6470488e-23)
(-6.1456899e-05 -5.7976508e-06 -1.0749803e-21)
(-6.2140608e-05 -5.9180504e-06 -8.3569584e-38)
(-6.2359642e-05 -6.3144712e-06 -1.0697361e-21)
(-6.7427372e-05 -5.9737844e-06 4.5917748e-41)
(-7.124578e-05 -5.1398155e-06 -2.0525233e-38)
(-7.0054706e-05 -5.4045076e-06 -1.0829709e-21)
(-7.0141626e-05 -5.4944656e-06 1.0887555e-21)
(-7.0449581e-05 -5.5821274e-06 -1.7083352e-23)
(-7.0992003e-05 -5.6726581e-06 -1.0980207e-21)
(-7.1547467e-05 -5.8319381e-06 2.6923609e-27)
(-7.3129764e-05 -5.925043e-06 2.2364459e-21)
(-7.6673029e-05 -5.5409465e-06 2.5713939e-39)
(-7.8091029e-05 -5.2377246e-06 -1.1191277e-21)
(-7.7582992e-05 -5.4458066e-06 1.1259759e-21)
(-7.8056637e-05 -5.4997155e-06 -1.1221658e-21)
(-7.8583734e-05 -5.5713151e-06 1.1270818e-21)
(-7.9230535e-05 -5.6433756e-06 -1.1511697e-21)
(-7.9873275e-05 -5.7537789e-06 8.9740753e-24)
(-8.1251509e-05 -5.7681279e-06 1.1533211e-21)
(-8.2789646e-05 -5.6592339e-06 -2.7550649e-40)
(-8.3388959e-05 -5.693149e-06 1.3277967e-27)
(-8.3832004e-05 -5.7918293e-06 3.3979134e-39)
(-8.4461497e-05 -5.8733047e-06 2.3443949e-21)
(-8.5122757e-05 -5.9651168e-06 9.2361029e-24)
(-8.5792269e-05 -6.081309e-06 -9.2868577e-24)
(-8.6278573e-05 -6.3524199e-06 1.8316753e-27)
(-9.0070457e-05 -6.1447589e-06 1.3926364e-27)
(-9.3328339e-05 -5.5455736e-06 2.4192937e-21)
(-9.2715678e-05 -5.6723871e-06 -6.0569634e-22)
(-9.2410132e-05 -5.827123e-06 1.2286057e-21)
(-9.2413871e-05 -5.967446e-06 -6.2208201e-22)
(-9.2481321e-05 -6.1557083e-06 -1.2309375e-21)
(-9.2781186e-05 -6.4210405e-06 -6.1841626e-22)
(-9.2859191e-05 -7.2318134e-06 6.2201418e-22)
(-0.00010648584 -6.0928601e-06 3.4438311e-39)
(-0.00011694762 -3.0931175e-06 4.3047889e-42)
(-0.00011213493 -3.4184743e-06 -9.8182046e-24)
(-0.00010894942 -3.7634797e-06 9.8797587e-24)
(-0.00010716012 -3.9699021e-06 -3.1834676e-22)
(-0.00010588907 -4.218022e-06 -3.3005536e-22)
(-0.00010544769 -4.5086953e-06 -3.1166596e-22)
(-0.00010348704 -5.8288118e-06 -3.2785272e-38)
(-0.00012281674 -4.0863487e-06 3.2129868e-38)
(-0.00014379619 1.856145e-06 1.0125718e-23)
(-0.00013803901 2.5730242e-06 -1.0171161e-23)
(-0.00012879416 1.4144403e-06 -1.6391727e-22)
(-0.0001247106 1.1155286e-06 1.6501679e-22)
(-0.00012138983 7.3358853e-07 1.5565468e-22)
(-0.0001189798 3.5405439e-07 1.045381e-23)
(-0.00011628825 -7.3153637e-07 -1.6815866e-22)
(-0.00012688523 -1.2901406e-07 -1.6811339e-22)
(-0.00015631138 6.5075985e-06 1.049043e-23)
(-0.00015982506 1.120003e-05 5.8342416e-27)
(-0.00014289387 8.2484201e-06 -2.1242743e-23)
(-0.00013816787 7.9570097e-06 -6.7511829e-22)
(-0.00013331422 7.3780456e-06 0)
(-0.00012967364 6.9044299e-06 0)
(-0.00012627182 6.3186865e-06 -6.885151e-22)
(-0.00012187704 4.6754407e-06 -7.2440524e-22)
(-0.00014994771 9.4393422e-06 1.0923587e-23)
(-0.00016413543 1.7203292e-05 1.4061587e-21)
(-0.00014590677 1.3911007e-05 -3.2377706e-27)
(-0.00013992586 1.3291067e-05 1.428363e-21)
(-0.00013396883 1.2431006e-05 1.1243385e-23)
(-0.00012967044 1.1826983e-05 -2.2645181e-23)
(-0.00012594936 1.1165733e-05 2.9182465e-21)
(-0.0001220801 1.0082191e-05 1.146777e-23)
(-0.000131496 1.1150187e-05 -1.4651269e-21)
(-0.00016339679 1.9545004e-05 5.7024233e-24)
(-0.00016689192 2.5342063e-05 -5.7241568e-24)
(-0.00014594062 2.0840763e-05 1.4806281e-21)
(-0.00013997732 2.0090198e-05 0)
(-0.00013328484 1.8891627e-05 1.102026e-39)
(-0.00012840058 1.8039096e-05 -1.524933e-21)
(-0.000124532 1.7272126e-05 -7.5794297e-28)
(-0.00012044349 1.6190866e-05 6.0087446e-24)
(-0.00013438038 1.9008737e-05 3.0643814e-21)
(-0.00015521708 2.6493306e-05 -9.9182336e-38)
(-0.00015026239 2.8193353e-05 6.0222066e-24)
(-0.00013610102 2.5025084e-05 -1.563451e-21)
(-0.00013031599 2.3980579e-05 -6.1428624e-24)
(-0.00012461283 2.2807534e-05 1.5916e-21)
(-0.00012016986 2.1904584e-05 -1.5979086e-21)
(-0.0001165484 2.1116469e-05 -1.6098351e-21)
(-0.00011314079 2.0315642e-05 1.2967172e-37)
(-0.0001215554 2.2293596e-05 6.3152815e-24)
(-0.000135359 2.7372584e-05 -6.3186218e-24)
(-0.00013165854 2.84229e-05 -1.6215075e-21)
(-0.00012060949 2.579649e-05 1.7138285e-27)
(-0.00011588847 2.4810514e-05 -6.4841327e-24)
(-0.00011109946 2.3717595e-05 -1.6675173e-21)
(-0.00010731745 2.286275e-05 -1.6940587e-21)
(-0.00010424328 2.2136722e-05 1.7002708e-21)
(-0.00010194814 2.1579723e-05 -1.7111418e-21)
(-0.00010566989 2.2602811e-05 -6.6737199e-24)
(-0.00012488322 2.8250215e-05 6.6376824e-24)
(-0.00012712099 3.1923315e-05 -1.7026012e-21)
(-0.00011195539 2.7948701e-05 -1.7297711e-21)
(-0.00010787624 2.7024135e-05 -6.830536e-24)
(-0.00010279773 2.5719774e-05 -1.7646287e-21)
(-9.9122508e-05 2.481094e-05 0)
(-9.5955748e-05 2.3993104e-05 3.5881791e-21)
(-9.3677017e-05 2.3376883e-05 0)
(-9.1784413e-05 2.307921e-05 -3.6333615e-21)
(-0.00010483298 2.6565532e-05 -1.4901556e-27)
(-0.00011281895 3.0907017e-05 7.078023e-24)
(-0.00010415674 2.9403873e-05 1.825115e-21)
(-9.7968162e-05 2.7722888e-05 0)
(-9.3749914e-05 2.6552551e-05 -3.7288312e-21)
(-9.0180942e-05 2.5549844e-05 -1.8813973e-21)
(-8.720302e-05 2.4715877e-05 7.4126205e-24)
(-8.484121e-05 2.4063565e-05 1.9051932e-21)
(-8.318412e-05 2.3610739e-05 7.5266761e-24)
(-8.2254786e-05 2.3615918e-05 2.0606532e-28)
(-9.516644e-05 2.6956621e-05 1.9072632e-21)
(-9.9060163e-05 3.0432087e-05 1.9276861e-21)
(-8.7554796e-05 2.715044e-05 -1.9564172e-21)
(-8.4897715e-05 2.638612e-05 3.8573259e-24)
(-8.1226467e-05 2.5276278e-05 1.9936442e-21)
(-7.8638883e-05 2.4497821e-05 2.0114066e-21)
(-7.6371087e-05 2.3824598e-05 -2.0282223e-21)
(-7.4718909e-05 2.3349714e-05 -2.0440853e-21)
(-7.3748828e-05 2.3114385e-05 -2.0572541e-21)
(-7.3690199e-05 2.3464297e-05 4.4081038e-39)
(-8.7026417e-05 2.7140342e-05 3.9736462e-24)
(-9.140153e-05 3.0800975e-05 2.0452392e-21)
(-8.0388526e-05 2.758085e-05 2.0786299e-21)
(-7.7741014e-05 2.6723528e-05 -2.104882e-21)
(-7.4280547e-05 2.5589424e-05 2.1260679e-21)
(-7.1826757e-05 2.477895e-05 2.1461478e-21)
(-6.9632945e-05 2.4062667e-05 0)
(-6.7916128e-05 2.3511634e-05 2.1833414e-21)
(-6.6685825e-05 2.3141993e-05 -1.9983404e-37)
(-6.6214816e-05 2.319343e-05 -2.2093694e-21)
(-7.0656171e-05 2.4699262e-05 -4.4108878e-21)
(-7.456315e-05 2.6596246e-05 4.3270333e-24)
(-7.1789854e-05 2.6248991e-05 2.2267069e-21)
(-6.7611125e-05 2.4878326e-05 4.4092164e-24)
(-6.5507263e-05 2.4136869e-05 2.2859177e-21)
(-6.3419094e-05 2.3408482e-05 -2.2508607e-24)
(-6.1718997e-05 2.2818096e-05 -2.9387359e-39)
(-6.0277859e-05 2.2325711e-05 -2.3451768e-21)
(-5.9166268e-05 2.1962187e-05 -2.366224e-21)
(-5.8582156e-05 2.1822271e-05 2.3835132e-21)
(-5.8769869e-05 2.2150337e-05 0)
(-6.4236034e-05 2.3963072e-05 2.313234e-24)
(-6.5976872e-05 2.5259714e-05 -2.3345992e-24)
(-6.0697469e-05 2.3636864e-05 -2.4213145e-21)
(-5.9044446e-05 2.302433e-05 -2.4552481e-21)
(-5.7125191e-05 2.233044e-05 -2.4743513e-21)
(-5.5687752e-05 2.1809989e-05 -2.4409017e-24)
(-5.4459345e-05 2.1374518e-05 -2.5245403e-21)
(-5.3509668e-05 2.1052971e-05 5.0901504e-21)
(-5.2961647e-05 2.0908371e-05 -2.5627432e-21)
(-5.2893442e-05 2.0986273e-05 -2.5767431e-21)
(-5.3792417e-05 2.1666637e-05 1.2564963e-24)
(-6.0663213e-05 2.402717e-05 -1.7904478e-37)
(-6.3160746e-05 2.5790012e-05 1.2536164e-24)
(-5.7395037e-05 2.4005057e-05 -1.9127716e-24)
(-5.5618419e-05 2.3300492e-05 -2.6445831e-21)
(-5.3643337e-05 2.2533249e-05 -2.675203e-21)
(-5.2155753e-05 2.1947263e-05 -2.7056277e-21)
(-5.0843297e-05 2.143599e-05 -4.24549e-29)
(-4.9754055e-05 2.1016428e-05 6.7317489e-25)
(-4.8885329e-05 2.0688298e-05 -2.7824249e-21)
(-4.8248469e-05 2.0474984e-05 3.6734198e-40)
(-4.8045681e-05 2.0521706e-05 -2.8199296e-21)
(-4.9472212e-05 2.1134381e-05 8.6073321e-26)
(-5.1294038e-05 2.1911618e-05 -1.4170623e-21)
(-5.0434228e-05 2.1864877e-05 -2.8592133e-21)
(-4.7988392e-05 2.0979084e-05 1.767798e-25)
(-4.7021326e-05 2.0569335e-05 2.9310708e-21)
(-4.5898184e-05 2.0118596e-05 -3.6211718e-25)
(-4.5016311e-05 1.9764455e-05 1.4960557e-21)
(-4.4257922e-05 1.9465459e-05 -7.3641656e-25)
(-4.3649384e-05 1.9232302e-05 7.4359143e-25)
(-4.3201544e-05 1.9084643e-05 1.5338803e-21)
(-4.2999799e-05 1.9073006e-05 9.1835496e-41)
(-4.3258065e-05 1.9337786e-05 1.5491669e-21)
(-4.5371593e-05 2.0205927e-05 -4.1142302e-38)
(-4.709446e-05 2.1005876e-05 1.5203962e-24)
(-4.5998791e-05 2.0882562e-05 -1.5344639e-24)
(-4.3951384e-05 2.0119075e-05 0)
(-4.3092538e-05 1.9745548e-05 -1.6133821e-21)
(-4.2144085e-05 1.9354434e-05 -1.6304588e-21)
(-4.1418338e-05 1.9055936e-05 1.647012e-21)
(-4.080746e-05 1.881006e-05 -1.6622447e-21)
(-4.0320992e-05 1.8624393e-05 -1.6389934e-24)
(-3.9985582e-05 1.8523383e-05 1.6534835e-24)
(-3.9858761e-05 1.8534403e-05 -1.6641168e-24)
(-4.0037017e-05 1.8728162e-05 1.7087655e-21)
(-4.1082717e-05 1.9351527e-05 1.666738e-24)
(-4.3820019e-05 2.0427951e-05 -8.0356059e-41)
(-4.4307863e-05 2.0914178e-05 -4.1142302e-38)
(-4.1364612e-05 1.9880166e-05 -1.7509753e-21)
(-4.0925023e-05 1.9660718e-05 -3.466636e-24)
(-4.0039653e-05 1.9293453e-05 -3.5894621e-21)
(-3.9489518e-05 1.9063109e-05 1.770849e-24)
(-3.9003263e-05 1.8867309e-05 1.7891746e-24)
(-3.8634057e-05 1.8735932e-05 -1.8056705e-24)
(-3.8380575e-05 1.8671493e-05 -1.8640026e-21)
(-3.8266138e-05 1.8677212e-05 -8.8162076e-38)
(-3.8306574e-05 1.876559e-05 -7.2638757e-28)
(-3.8575412e-05 1.8995718e-05 1.8505483e-24)
(-3.9347562e-05 1.9528708e-05 3.3218747e-29)
(-4.148761e-05 2.0441838e-05 -9.4386764e-22)
(-4.2395362e-05 2.0967475e-05 0)
(-4.1209241e-05 2.0715232e-05 -2.8698593e-42)
(-4.1628217e-05 2.0998105e-05 9.4551249e-25)
(-4.1971434e-05 2.1266354e-05 9.7052397e-22)
(-4.2711167e-05 2.1723423e-05 -9.7341012e-22)
(-4.3811509e-05 2.2377522e-05 9.7132911e-22)
(-4.544083e-05 2.3334071e-05 -1.1754944e-38)
(-4.7853808e-05 2.4761095e-05 -1.9022841e-21)
(-5.1480846e-05 2.6910414e-05 -3.9855833e-27)
(-5.6905403e-05 3.0235652e-05 0)
(-6.5117087e-05 3.5410132e-05 8.4586698e-22)
(-7.7416313e-05 4.2980043e-05 7.843495e-22)
(-9.1929117e-05 5.2976301e-05 -1.1754944e-38)
(-0.00010712454 6.856662e-05 -6.3519308e-22)
(-2.8051113e-05 -2.9154788e-06 -8.8162828e-24)
(-2.5634564e-05 -2.4256047e-06 4.4152369e-24)
(-2.6466262e-05 -2.4394567e-06 9.047149e-21)
(-2.7604096e-05 -2.4678841e-06 -4.4174958e-24)
(-2.7080519e-05 -2.0033624e-06 -4.516289e-21)
(-2.5332855e-05 -1.668495e-06 -4.5360683e-21)
(-2.5822845e-05 -1.6146545e-06 -9.4422674e-38)
(-2.5130786e-05 -1.327639e-06 -4.5360653e-21)
(-2.4061267e-05 -1.1097647e-06 4.4343875e-24)
(-2.3593615e-05 -9.7733084e-07 -2.2763308e-21)
(-2.2911355e-05 -8.7034151e-07 4.5510625e-21)
(-2.282631e-05 -8.5994648e-07 -2.2831802e-21)
(-2.2801403e-05 -8.3168619e-07 4.4425241e-24)
(-2.263209e-05 -8.0551528e-07 4.5482132e-21)
(-2.2573401e-05 -7.8750748e-07 -2.2734156e-21)
(-2.2464162e-05 -7.7271559e-07 2.2738185e-21)
(-2.2432018e-05 -7.7033835e-07 2.2229707e-24)
(-2.247263e-05 -7.7989883e-07 4.5528518e-21)
(-2.2645068e-05 -7.9291944e-07 -2.2764306e-21)
(-2.2670611e-05 -7.8525351e-07 -2.223101e-24)
(-2.2909844e-05 -7.9312472e-07 -2.2741791e-21)
(-2.2809131e-05 -7.4065958e-07 -4.1355658e-38)
(-2.292217e-05 -7.3051439e-07 -2.2766977e-21)
(-2.2722121e-05 -6.4234677e-07 2.5254761e-40)
(-2.2636734e-05 -6.2132838e-07 1.0573638e-40)
(-2.2440263e-05 -5.317397e-07 -2.224064e-24)
(-2.2301551e-05 -5.134129e-07 4.4491972e-24)
(-2.2121048e-05 -4.3260374e-07 -2.2247299e-24)
(-2.2000977e-05 -4.1999402e-07 -1.1404596e-21)
(-2.1830071e-05 -3.4539032e-07 -1.2650827e-29)
(-2.1723019e-05 -3.3941782e-07 1.1407481e-21)
(-2.1590488e-05 -2.714077e-07 1.1396489e-21)
(-2.1480028e-05 -2.6984223e-07 1.139877e-21)
(-2.1412996e-05 -2.1279489e-07 -5.6994318e-22)
(-2.1326344e-05 -2.0917362e-07 5.7002916e-22)
(-2.1282941e-05 -1.5598232e-07 -5.7003286e-22)
(-2.1194731e-05 -1.4487784e-07 -2.2958874e-41)
(-2.1146999e-05 -8.7162664e-08 -1.0069129e-38)
(-2.0943146e-05 -6.2839779e-08 -6.4695151e-39)
(-2.0913227e-05 -9.6300509e-09 -2.7843973e-25)
(-2.059088e-05 2.7584553e-08 7.1570296e-23)
(-2.0556568e-05 6.2644378e-08 -8.7036989e-27)
(-2.0273579e-05 1.0222265e-07 8.7045676e-27)
(-2.0230847e-05 1.2121761e-07 -2.4864426e-38)
(-2.0028603e-05 1.5801275e-07 8.6095778e-42)
(-2.0049807e-05 1.695532e-07 -5.7009305e-22)
(-1.9826934e-05 2.129147e-07 -5.5728028e-25)
(-1.990792e-05 2.1812851e-07 5.5732897e-25)
(-1.9662499e-05 2.8447041e-07 5.57352e-25)
(-1.9530019e-05 2.8571726e-07 -1.114886e-24)
(-1.939641e-05 3.5505149e-07 1.1416648e-21)
(-1.9058728e-05 3.600368e-07 1.1152083e-24)
(-1.8986599e-05 4.1093589e-07 1.5832295e-29)
(-1.8654819e-05 4.2110347e-07 2.2834002e-21)
(-1.8574263e-05 4.5232426e-07 -1.1010301e-29)
(-1.8348689e-05 4.6599465e-07 -2.2850282e-21)
(-1.8258833e-05 4.9000797e-07 2.2852367e-21)
(-1.8061305e-05 5.0819553e-07 2.2854702e-21)
(-1.7969107e-05 5.3394905e-07 -2.7550649e-40)
(-1.7689996e-05 5.6019641e-07 -2.2859412e-21)
(-1.7546086e-05 5.8454288e-07 2.2327507e-24)
(-1.7185385e-05 6.1811985e-07 -2.2329683e-24)
(-1.694444e-05 6.363816e-07 -2.2894042e-21)
(-1.6524627e-05 6.7275167e-07 -2.287506e-21)
(-1.6162258e-05 6.8289426e-07 2.2346129e-24)
(-1.566236e-05 7.154742e-07 1.8367099e-40)
(-1.5130907e-05 7.0922365e-07 4.5794266e-21)
(-1.45778e-05 7.236405e-07 -3.7046439e-37)
(-1.3938133e-05 6.9040414e-07 -4.5807408e-21)
(-1.3474802e-05 6.720647e-07 4.5822879e-21)
(-1.3029758e-05 6.2972429e-07 4.5863345e-21)
(-1.2558495e-05 5.7997124e-07 3.3391386e-37)
(-1.2428899e-05 5.3219474e-07 -4.5847565e-21)
(-1.1902705e-05 4.6265202e-07 -4.4825409e-24)
(-1.2089696e-05 3.9489789e-07 -2.2956946e-21)
(-1.1659728e-05 3.3427868e-07 -4.5959454e-21)
(-1.1803035e-05 1.9925768e-07 1.1569595e-21)
(-1.2214308e-05 1.6748931e-07 -4.4845064e-24)
(-1.1887646e-05 7.6387264e-09 -1.5831558e-29)
(-1.2875366e-05 -7.50697e-08 -2.9735073e-30)
(-1.249839e-05 -1.9220664e-07 4.484216e-24)
(-1.3267461e-05 -4.0028257e-07 -8.9647456e-24)
(-1.4214592e-05 -5.1146281e-07 4.4822004e-24)
(-1.4167826e-05 -6.9510526e-07 -4.4812407e-24)
(-1.530344e-05 -9.412081e-07 8.958384e-24)
(-1.6319279e-05 -1.127208e-06 -4.4783178e-24)
(-1.6601552e-05 -1.3294793e-06 4.4771656e-24)
(-1.7721757e-05 -1.6420068e-06 9.1558622e-21)
(-1.9002084e-05 -1.9215297e-06 4.4721117e-24)
(-1.999282e-05 -2.2213279e-06 9.1572266e-21)
(-2.1245402e-05 -2.5736459e-06 9.1521314e-21)
(-2.2978751e-05 -3.0043621e-06 9.1455616e-21)
(-2.4824515e-05 -3.4942578e-06 9.136726e-21)
(-2.7968474e-05 -4.0292871e-06 9.1269505e-21)
(-2.8921395e-05 -4.3325397e-06 -9.1222605e-21)
(-3.3828412e-05 -5.245783e-06 8.8863785e-24)
(-3.7517265e-05 -7.5196362e-06 1.8050595e-20)
(-8.2881059e-05 -9.8444672e-06 4.4521849e-37)
(-4.9361114e-05 1.0062718e-05 -2.5111268e-42)
(-0.00012789433 -9.2671547e-05 2.9387359e-39)
(-0.00010285762 -6.914282e-05 4.0521218e-23)
(-9.0800959e-05 -5.8964382e-05 -4.3534821e-23)
(-8.6149665e-05 -5.3881222e-05 1.4693679e-39)
(-9.6279445e-05 -5.8340111e-05 -1.6652358e-39)
(-0.00010847876 -6.2654546e-05 -5.2782451e-38)
(-0.00017574633 -0.00010573738 0)
(-0.00017561545 -7.5964657e-05 -8.6081073e-22)
(-5.3417312e-05 -1.1589717e-05 -3.869716e-23)
(-2.0344971e-05 -5.518227e-07 -2.9816893e-21)
(-3.634675e-05 -7.4844232e-06 4.2578479e-23)
(-2.7930205e-05 -5.2507092e-06 -4.4081038e-39)
(6.0880486e-06 4.8674548e-06 2.5015809e-21)
(8.6489064e-06 4.3434195e-06 3.6617296e-23)
(6.2827449e-06 3.0711716e-06 -3.3650674e-23)
(6.7576576e-06 2.9531751e-06 -1.4119708e-39)
(2.7306949e-06 2.1879462e-06 0)
(-3.6313964e-06 7.4252232e-07 -3.404404e-21)
(-1.0106124e-05 -7.1135487e-07 0)
(-1.538748e-05 -1.8335415e-06 -5.8327728e-21)
(-1.6540316e-05 -1.951776e-06 -1.5863969e-27)
(-1.815534e-05 -2.201324e-06 -1.0027866e-20)
(-2.0824452e-05 -2.7289303e-06 9.1785832e-24)
(-2.5971519e-05 -3.7231535e-06 -8.652594e-24)
(-2.544982e-05 -3.1839813e-06 -4.198308e-21)
(-2.2967188e-05 -2.627276e-06 -7.6301401e-24)
(-2.4818242e-05 -2.971159e-06 -1.9049552e-37)
(-2.8065244e-05 -3.5019304e-06 6.973679e-24)
(-5.3316504e-06 -4.6753629e-05 -5.9131225e-22)
(-4.4126493e-06 -3.8630119e-05 3.845365e-23)
(-5.8212021e-06 -4.4094108e-05 -3.7273639e-23)
(-6.7392774e-06 -4.914682e-05 5.3376807e-22)
(-9.2699662e-06 -6.333614e-05 5.331617e-22)
(-1.3163619e-05 -6.2602088e-05 3.3113201e-23)
(-1.2116145e-05 -5.6325125e-05 1.0587973e-21)
(-1.3630175e-05 -6.0268936e-05 6.6299332e-23)
(-1.5394072e-05 -6.683429e-05 -3.1781993e-23)
(-1.7828033e-05 -7.5911231e-05 0)
(-2.1144752e-05 -8.7080509e-05 8.6134983e-22)
(-2.7970342e-05 -0.0001108799 -7.4686649e-22)
(-4.0188472e-05 -0.00012292852 7.5412453e-22)
(-4.3002582e-05 -0.00010436569 -1.5418875e-27)
(-3.4667217e-05 -7.8848896e-05 0)
(-3.5739896e-05 -7.6407685e-05 -1.7632415e-38)
(-3.9787381e-05 -8.266358e-05 1.6833778e-21)
(-4.6010609e-05 -9.5578015e-05 2.497008e-23)
(-5.2045205e-05 -0.00010266706 -2.9387359e-39)
(-5.2466413e-05 -9.5843883e-05 1.5671565e-21)
(-5.0685673e-05 -8.8875081e-05 5.0134723e-23)
(-5.5921898e-05 -9.5306263e-05 -4.7394491e-23)
(-6.3843583e-05 -0.00010724665 2.4609412e-26)
(-7.4140565e-05 -0.00012246395 -3.9392056e-23)
(-9.2895212e-05 -0.0001525195 -1.0718538e-21)
(-0.00011409718 -0.00016723317 3.5225112e-26)
(-0.00011259829 -0.00013781158 -1.089621e-21)
(-8.3079222e-05 -9.3510394e-05 4.1055388e-23)
(-7.5101584e-05 -8.0267987e-05 1.3563441e-21)
(-8.0312348e-05 -8.294378e-05 6.0008462e-27)
(-8.9659221e-05 -8.9957361e-05 3.9541812e-23)
(-0.00011671216 -0.00011873555 3.4745301e-23)
(-0.00011951225 -0.00011050322 -3.4994414e-23)
(-9.1532554e-05 -7.7840515e-05 -2.6005672e-21)
(-7.8251871e-05 -6.3320114e-05 -1.3978542e-21)
(-7.7743761e-05 -6.0551927e-05 -1.4602361e-21)
(-8.6333014e-05 -6.5886564e-05 -4.2144181e-23)
(-9.7067646e-05 -7.2328829e-05 1.2002726e-21)
(-0.00012705047 -9.6701953e-05 -1.0464807e-21)
(5.3428726e-07 -4.6805684e-05 -3.3663927e-22)
(1.1853573e-06 -3.1311859e-05 4.4309615e-23)
(1.1977366e-06 -2.6727965e-05 2.7980728e-27)
(1.1075699e-06 -2.188375e-05 -9.1700442e-23)
(1.0486476e-06 -1.8651848e-05 4.6176184e-23)
(1.0592717e-06 -1.6596331e-05 -7.4444153e-22)
(1.2898841e-06 -1.3511476e-05 -7.9821723e-22)
(8.1124208e-07 -8.3441779e-06 8.5224494e-22)
(4.0435338e-07 -5.3346688e-06 -4.4081038e-39)
(-1.0609193e-07 -2.1491835e-06 5.6980411e-23)
(-4.3408888e-07 6.3488323e-07 8.7196105e-22)
(-9.0645729e-07 3.0138304e-06 -4.52749e-38)
(-1.5362343e-06 5.654202e-06 7.5702493e-22)
(-2.1154706e-06 8.808392e-06 6.559729e-22)
(-3.3385714e-06 1.2216485e-05 -5.541206e-22)
(-3.9631765e-06 1.7784938e-05 -4.7121283e-22)
(-5.8895367e-06 2.0474667e-05 1.7632415e-38)
(-7.4954747e-06 2.0043762e-05 4.4273296e-22)
(-8.7315091e-06 2.1213007e-05 2.7278203e-23)
(-9.7976207e-06 2.3028414e-05 1.4326337e-38)
(-1.0841205e-05 2.5053417e-05 4.2728119e-27)
(-1.1939466e-05 2.7253708e-05 -3.3005186e-22)
(-1.31711e-05 2.9680258e-05 -5.1221363e-27)
(-1.4730462e-05 3.2316605e-05 -6.3400816e-27)
(-1.6072426e-05 3.6706376e-05 -1.497662e-23)
(-1.7534406e-05 3.9563788e-05 3.0992455e-23)
(-1.8583393e-05 3.7890473e-05 -5.4605745e-28)
(-1.9638034e-05 3.7381429e-05 2.2318725e-22)
(-2.0776573e-05 3.8105465e-05 -2.1089482e-22)
(-2.1997997e-05 3.9443736e-05 -1.3166299e-23)
(-2.3327724e-05 4.1204409e-05 1.4693679e-39)
(-2.4815824e-05 4.3344078e-05 -1.8162333e-22)
(-2.6542464e-05 4.5879539e-05 -1.4693679e-39)
(-2.8659752e-05 4.8929867e-05 -2.9387359e-39)
(-3.1604339e-05 5.2556992e-05 -1.4682893e-22)
(-3.4870748e-05 5.9045196e-05 1.3148236e-22)
(-3.9615423e-05 6.8016797e-05 -1.3143474e-22)
(-4.6334288e-05 6.9549627e-05 0)
(-4.6300633e-05 5.8519865e-05 3.15713e-22)
(-4.5043101e-05 5.3408801e-05 1.0830269e-23)
(-4.3579022e-05 5.1022509e-05 3.5794128e-27)
(-4.2404105e-05 4.9229368e-05 1.1260858e-23)
(-4.2074298e-05 4.8218386e-05 1.6695472e-22)
(-4.2620998e-05 4.80402e-05 -8.8162076e-39)
(-4.3895216e-05 4.8600074e-05 -1.5588644e-22)
(-4.5892956e-05 4.9878929e-05 -1.6787046e-22)
(-4.8851428e-05 5.1935739e-05 -1.4795032e-22)
(-5.175241e-05 5.6461054e-05 8.6338149e-24)
(-5.6445126e-05 6.3401901e-05 1.3856692e-22)
(-6.1204796e-05 6.2841107e-05 -3.3083279e-22)
(-5.9217006e-05 5.3535572e-05 1.8369546e-22)
(-5.6800459e-05 4.8495089e-05 1.9715878e-22)
(-5.4286254e-05 4.5684477e-05 -4.110003e-22)
(-5.199327e-05 4.367667e-05 -2.1070655e-22)
(-5.0193911e-05 4.2219304e-05 -8.8162076e-39)
(-4.8947406e-05 4.1193349e-05 -4.4300763e-22)
(-4.862182e-05 4.0635687e-05 -1.9940736e-22)
(-4.9159001e-05 4.0556597e-05 -2.0821646e-22)
(-5.0431403e-05 4.0986397e-05 4.0382757e-22)
(-5.2396162e-05 4.1957501e-05 -1.9398232e-22)
(-5.5183911e-05 4.3410942e-05 -1.1531163e-23)
(-5.8496891e-05 4.5957709e-05 2.1694201e-23)
(-6.0832948e-05 5.1382101e-05 -1.0563323e-23)
(-7.1018902e-05 5.9815347e-05 -1.4693679e-39)
(-6.7892729e-05 4.8527644e-05 9.89497e-23)
(-6.4319262e-05 4.166168e-05 1.5725752e-23)
(-6.0155756e-05 3.7604347e-05 1.3558937e-22)
(-5.6017678e-05 3.4683936e-05 2.6873602e-22)
(-5.2345736e-05 3.2404711e-05 1.8679365e-23)
(-4.9297468e-05 3.0628627e-05 1.4466382e-22)
(-4.691363e-05 2.9252228e-05 1.9757405e-23)
(-4.510666e-05 2.8217462e-05 -1.7077047e-22)
(-4.3796348e-05 2.7445989e-05 1.0155038e-23)