/*--------------------------------*- C++ -*----------------------------------*\
| =========                 |                                                 |
| \\      /  F ield         | OpenFOAM: The Open Source CFD Toolbox           |
|  \\    /   O peration     | Version:  v2006                                 |
|   \\  /    A nd           | Website:  www.openfoam.com                      |
|    \\/     M anipulation  |                                                 |
\*---------------------------------------------------------------------------*/
FoamFile
{
    version     2.0;
    format      ascii;
    class       volScalarField;
    location    "5000";
    object      yPlus;
}
// * * * * * * * * * * * * * * * * * * * * * * * * * * * * * * * * * * * * * //

dimensions      [0 0 0 0 0 0 0];


internalField   uniform 0;

boundaryField
{
    Side
    {
        type            empty;
    }
    Ground
    {
        type            calculated;
        value           nonuniform List<scalar> 
645
(
0.75251115
0.74900701
0.74453048
0.74116722
0.73835627
0.73650289
0.73568014
0.7359901
0.73768883
0.74082961
0.74565845
0.75230686
0.76093549
0.77166413
0.78465319
0.80028421
0.81824217
0.83498198
0.86087547
0.92985711
0.86990847
1.1581974
1.1306495
1.1046914
1.0795676
1.055364
1.0320152
1.0094722
0.98768517
0.96660914
0.94618402
0.92635088
0.90707252
0.88834174
0.87012601
0.85242355
0.8352103
0.81849767
0.80233121
0.78663003
0.7711072
0.75910453
1.177023
1.1854169
1.192154
1.1970742
1.2006904
1.2031674
1.2047961
1.2057319
1.2061681
1.2062128
1.2059465
1.205465
1.2047791
1.2040069
1.2030936
1.2021224
1.20109
1.2000161
1.1988888
1.1977116
1.1964675
1.1951772
1.1938096
1.192349
1.1907688
1.1890674
1.1871788
1.185052
1.1826859
1.180024
1.1770044
1.1735693
1.1696486
1.1651759
1.1600773
1.1542836
1.147705
1.1402558
1.1318524
1.1224093
1.1118316
1.1000666
1.0869985
1.0725923
1.0567914
1.0394456
1.0205145
1.0000122
0.97787841
0.95408807
0.92860293
0.90142027
0.87251909
0.84189101
0.80952121
0.77537559
0.73942086
0.7015848
0.66176156
0.61979028
0.57540603
0.52822179
0.47761171
0.42254799
0.36119903
0.28980408
0.19797261
0.06262694
0.21247419
0.29084066
0.34958077
0.39751994
0.43826902
0.4737349
0.50505561
0.53299574
0.55812588
0.58087052
0.60155147
0.62042071
0.6377038
0.6535936
0.66823092
0.68174641
0.69424498
0.70579707
0.71649215
0.72641953
0.73564767
0.74423575
0.7522361
0.75968963
0.76663357
0.77311979
0.77919678
0.78489001
0.79022156
0.79521529
0.79989284
0.80427168
0.80837762
0.81219616
0.81579028
0.81886231
0.98069038
0.95935198
0.93601924
0.92537934
0.91699124
0.90959581
0.90227517
0.89567046
0.889767
0.88478686
0.88038138
0.87640166
0.87279326
0.86939532
0.86640563
0.86361613
0.8611471
0.85886885
0.85672279
0.85471149
0.85277307
0.85095436
0.84912635
0.84745805
0.84580162
0.84418778
0.84269337
0.84114492
0.83970136
0.83835715
0.83690261
0.83559427
0.83433393
0.83296872
0.83168403
0.83044844
0.82912553
0.82782887
0.82657158
0.82526312
0.82385151
0.8225577
0.82123524
0.81977146
0.81834082
0.81698026
0.815528
0.81389907
0.81241786
0.81096851
0.8093508
0.80757115
0.80594187
0.80431192
0.80247981
0.8004776
0.79857101
0.79664671
0.79450555
0.7921816
0.78987657
0.78753728
0.78498183
0.78222743
0.77939143
0.77655396
0.77353663
0.77031261
0.76679662
0.76337062
0.75986795
0.756087
0.75204276
0.74782068
0.7436609
0.73932082
0.73471319
0.72984408
0.72482498
0.71978323
0.71454663
0.70904589
0.70329512
0.69741362
0.69145102
0.68529114
0.67887015
0.67211901
0.66511186
0.65801738
0.65072239
0.64328336
0.63577138
0.62805616
0.62056598
0.61293295
0.60483808
0.5963369
0.58720135
0.57789194
0.56857678
0.55922813
0.54986011
0.54045026
0.53080835
0.52132274
0.51195398
0.50232391
0.49258973
0.48250459
0.47192416
0.46110976
0.44992312
0.43835553
0.42672479
0.4152156
0.40437955
0.39308629
0.38366039
0.3728505
0.36228726
0.35118416
0.33787647
0.32575043
0.31200238
0.29908058
0.28728949
0.27492078
0.26412923
0.25209831
0.24065422
0.22844436
0.21404225
0.20048424
0.18517736
0.17159633
0.16177247
0.15491698
0.15295654
0.15515389
0.16215427
0.1724687
0.18570875
0.19862047
0.21133893
0.22394565
0.23543938
0.24786294
0.26090392
0.27387497
0.28736872
0.3000585
0.31206126
0.32365598
0.33481926
0.3464276
0.35810465
0.36972969
0.38147567
0.39270296
0.40346318
0.41422745
0.42493822
0.43557046
0.44622541
0.45670216
0.46694339
0.47697845
0.48704479
0.4972862
0.50745754
0.51753312
0.52757122
0.5375074
0.54734866
0.55725186
0.56748948
0.57789607
0.58818515
0.59853854
0.60887755
0.61915841
0.62935774
0.63980342
0.65059587
0.66121193
0.67182991
0.68237381
0.69281525
0.70309433
0.71323262
0.72338463
0.73346316
0.74323972
0.75276848
0.76198087
0.77083182
0.77922346
0.78707551
0.79447591
0.80180362
0.80923714
0.81644183
0.82320384
0.82952907
0.83543217
0.84104782
0.84648025
0.85147658
0.85605852
0.86022246
0.86394583
0.86716982
0.86990678
0.87271735
0.87606875
0.87901432
0.88162639
0.88391588
0.88585404
0.88736811
0.88844644
0.88988165
0.89247257
0.89475989
0.89672664
0.89849637
0.90001473
0.90125538
0.90216812
0.90328757
0.90542309
0.90776339
0.90960206
0.91133522
0.91284053
0.91414576
0.91518786
0.91594102
0.91752146
0.91972908
0.9214175
0.92303242
0.92445808
0.92572683
0.92681906
0.92766875
0.92869591
0.93079174
0.93323264
0.93521886
0.93716504
0.93893542
0.94057177
0.94204683
0.94331103
0.94491474
0.94728003
0.94967384
0.95179524
0.95382665
0.95570556
0.95745555
0.95906331
0.96049523
0.96210272
0.96419241
0.96628295
0.96814407
0.96991067
0.97153945
0.97305122
0.97444235
0.97568523
0.9769298
0.97873379
0.9807427
0.98244164
0.98407934
0.98557832
0.98696167
0.98823499
0.98938953
0.99039601
0.99169078
0.99330665
0.99475516
0.9960818
0.99729568
0.99839219
0.99937877
1.000264
1.0010398
1.0016841
1.0026049
1.0036959
1.0045486
1.0053321
1.0059999
1.0065674
1.0070363
1.0074157
1.0077015
1.0078733
1.0083047
1.0089129
1.0093138
1.0096437
1.0098669
1.0099952
1.0100292
1.0099717
1.0098256
1.0095871
1.0093836
1.009269
1.0090844
1.0087889
1.0084063
1.0079362
1.007381
1.006745
1.0060304
1.0052369
1.0043594
1.0035426
1.0027623
1.0018651
1.0008955
0.99984797
0.99872173
0.99752105
0.99625331
0.99492078
0.99352177
0.99205207
0.9906596
0.98931969
0.98787794
0.9863745
0.98479685
0.9831493
0.98143403
0.97965172
0.9778081
0.97590143
0.97393094
0.9719465
0.96995114
0.96791237
0.96580111
0.96363668
0.96141695
0.95914129
0.95681052
0.95442743
0.95199504
0.94951463
0.94698411
0.94443744
0.94189805
0.93932245
0.93669022
0.93400957
0.93128232
0.92850866
0.92569108
0.9228312
0.91993071
0.91699346
0.91401439
0.91099306
0.9079788
0.90496205
0.90189665
0.89879707
0.89566029
0.89248738
0.88927971
0.88603924
0.88276879
0.87946998
0.87614504
0.87279924
0.86943224
0.86606115
0.86268187
0.85927452
0.85584974
0.85240961
0.84895768
0.84549777
0.8420345
0.83857087
0.8351193
0.83168648
0.82825145
0.82485927
0.82177752
0.70847584
0.73772713
0.76638307
0.79395032
0.82032132
0.84537404
0.86915257
0.89170861
0.91318488
0.93387455
0.95391759
0.97311787
0.99127392
1.0080645
1.023009
1.0356489
1.045546
1.0522655
1.0553116
1.0539496
1.0474737
1.0352716
1.0164627
0.99034387
0.95699499
0.91673223
0.87260237
0.83135292
0.80402928
0.7981957
0.81059561
0.83306611
0.85963258
0.88779422
0.91632741
0.94458276
0.97188238
0.99773097
1.0216884
1.0434815
1.0627706
1.0792319
1.0925127
1.1023425
1.1084956
1.1109024
1.1096533
1.10502
1.0974186
1.0874294
1.075711
1.0629834
1.0499386
1.0372267
1.0253499
1.0147069
1.0054897
0.99758337
0.99113207
0.98539356
0.97769501
0.67637475
0.64731917
0.62165278
0.59919747
0.57919107
0.56142622
0.54554304
0.53134
0.51857777
0.50709135
0.49670957
0.48731759
0.47878497
0.47102859
0.46395466
0.4574937
0.45157539
0.44615065
0.44116613
0.43657985
0.43235424
0.42845394
0.42485077
0.42151964
0.41843413
0.41557822
0.41292502
0.41046994
0.40817708
0.40607145
0.40407244
0.4022913
0.40050508
0.39909201
0.39735383
0.39654212
0.39438402
0.39507183
0.39068676
)
;
    }
    Inlet
    {
        type            calculated;
        value           uniform 0;
    }
    Airfoil
    {
        type            calculated;
        value           nonuniform List<scalar> 
646
(
0.4226268
0.47591766
1.0951744
0.86274977
0.96527188
0.91272898
0.93864293
0.90325157
0.88261643
0.84972908
0.83579234
0.81682179
0.80907752
0.79584453
0.7868245
0.77731904
0.76652538
0.75927869
0.75030247
0.7433958
0.73469959
0.72812424
0.72023673
0.71167577
0.70569048
0.6966765
0.69012473
0.68364034
0.67433681
0.66855408
0.66186931
0.65291785
0.64691404
0.6402801
0.63185966
0.62519074
0.61847595
0.61091097
0.60320308
0.597174
0.58986214
0.58219521
0.57537375
0.56960422
0.56154941
0.55471325
0.54798682
0.54277402
0.53441734
0.52806394
0.52124762
0.51612003
0.50825573
0.50167418
0.49476613
0.48914789
0.48213281
0.47491331
0.46821077
0.46146905
0.45543872
0.44732504
0.44104766
0.43276416
0.42752594
0.41895913
0.41247775
0.4036147
0.39548475
0.39061786
0.38079274
0.3744176
0.3629849
0.3554667
0.34911267
0.34001027
0.33155852
0.31818195
0.31033609
0.30232614
0.2928282
0.28190642
0.26572921
0.25541174
0.24595099
0.23357049
0.22043973
0.19687622
0.17797615
0.170893
0.14722294
0.13922392
0.11491615
0.1399262
0.14192223
0.16608625
0.17727985
0.20941036
0.24799467
0.25999582
0.26602472
0.28212413
0.28704848
0.32063738
0.34849156
0.34562238
0.35590123
0.36408507
0.37435452
0.39969809
0.41644827
0.41682851
0.42482698
0.43137399
0.44216855
0.4655248
0.47894901
0.47933896
0.48569807
0.49158709
0.50050377
0.52587668
0.54170717
0.53958771
0.54430887
0.55003822
0.55275352
0.58015254
0.60377808
0.59732657
0.6010477
0.60466372
0.60671407
0.62479888
0.64968502
0.6524311
0.65191079
0.654139
0.65722225
0.66141268
0.685418
0.70383141
0.69775812
0.69963817
0.70150555
0.70329557
0.71406081
0.73542585
0.74311941
0.74023217
0.74158922
0.74350858
0.74475793
0.75717999
0.77528871
0.77778233
0.776753
0.77805428
0.77993949
0.78122575
0.79279517
0.80880043
0.81055416
0.80997015
0.81124907
0.81309318
0.81437102
0.82718464
0.84871026
0.85365202
0.8505179
0.85104326
0.85217511
0.85333092
0.86218345
0.89289308
0.91010292
0.9008548
0.90011646
0.89989816
0.90103253
0.89901043
0.9303535
0.96352216
0.95361451
0.95077051
0.94941795
0.94962737
0.9499412
0.9569183
0.97861184
0.98955981
0.9832299
0.98306813
0.98323212
0.98412495
0.98498979
0.99026801
0.99784947
0.99927982
0.9989094
0.9996309
1.0005229
1.0014481
1.001369
1.0199091
1.0408845
1.0364833
1.0320994
1.0294506
1.0271791
1.0262079
1.0242754
1.0933467
1.1660033
1.1465978
1.1286594
1.1178157
1.1096354
1.1057639
1.094224
1.1898573
1.3190997
1.3104387
1.2661651
1.2464187
1.2301426
1.2182526
1.2047917
1.2588088
1.4178817
1.4706382
1.3927152
1.3724089
1.3507477
1.3347837
1.319606
1.298672
1.4441637
1.5529177
1.4705914
1.4447981
1.4180292
1.3993379
1.3831652
1.3655016
1.4216296
1.6055117
1.6600046
1.5578711
1.5326025
1.5018046
1.4802091
1.463677
1.445042
1.5334198
1.6719804
1.6672817
1.5942259
1.5679993
1.5408705
1.5205512
1.5046227
1.4894115
1.5517394
1.6542884
1.6479248
1.5852875
1.5623083
1.5376348
1.5190093
1.5046425
1.4953923
1.5304436
1.6761308
1.7094302
1.6127023
1.5921302
1.5627218
1.5429156
1.5261729
1.5158489
1.508647
1.6211748
1.6947573
1.6386034
1.5982479
1.572276
1.5506008
1.5331213
1.520392
1.5135126
1.5135265
1.6358242
1.6781313
1.5866611
1.5711733
1.545277
1.5287086
1.5145874
1.5060734
1.504209
1.5122808
1.6504904
1.6958389
1.5995721
1.5816591
1.5545228
1.536829
1.5212144
1.5102332
1.5043181
1.5072667
1.5646568
1.6112062
1.5867754
1.5482752
1.5318605
1.5149833
1.502102
1.4919007
1.4854371
1.4854955
1.4959245
1.5704368
1.5914399
1.5343339
1.5206121
1.5030373
1.491142
1.4816401
1.4756231
1.4750245
1.4811886
1.501758
1.6001917
1.6270885
1.5585913
1.5413388
1.5208922
1.506557
1.4942701
1.484844
1.4783907
1.4753214
1.4791445
1.5072406
1.5368651
1.5261736
1.4958104
1.4868509
1.4752779
1.4671664
1.4608094
1.4567141
1.4552383
1.4579855
1.4688682
1.5096393
1.5370466
1.5208133
1.4931934
1.4842723
1.4737076
1.4666638
1.4614421
1.4582996
1.4578711
1.4612796
1.4705215
1.4956684
1.5474247
1.5497628
1.50498
1.5020365
1.4913741
1.4864658
1.4826493
1.4809852
1.4815246
1.4847001
1.4909051
1.5017683
1.5226595
1.5675838
1.5795493
1.5644431
1.5777929
1.5900472
1.6096306
1.6360065
1.6722114
1.7226589
1.7941594
1.8954746
2.0390072
2.2356529
2.4563647
2.6876006
1.4513193
1.3826427
1.4008975
1.4268496
1.4049143
1.3546371
1.3642673
1.3407933
1.308726
1.2931621
1.2723908
1.2689744
1.2669454
1.2611849
1.2585261
1.2545982
1.2529441
1.2534416
1.2575567
1.2574542
1.2633293
1.2593804
1.2617209
1.2548499
1.2517936
1.2451349
1.2407164
1.2346791
1.2308916
1.2252745
1.2219543
1.2175593
1.2142147
1.2118206
1.2091843
1.2075792
1.2049263
1.2033009
1.1973872
1.1964087
1.1871274
1.1861642
1.1780445
1.1769264
1.1711941
1.1719992
1.1657351
1.1683454
1.1615692
1.1579483
1.154583
1.144903
1.1433833
1.1338751
1.1320662
1.1257738
1.1236905
1.1183008
1.1162146
1.108414
1.1047665
1.0944929
1.0877531
1.0755536
1.0647542
1.0496995
1.0328378
1.0152768
0.99365111
0.97794711
0.96216216
0.9449685
0.93988614
0.91969417
0.92552321
0.90868485
0.91102437
0.92576162
0.9097518
0.94357776
0.92696242
0.9484888
0.97799775
0.9709807
1.0013689
1.0284506
1.031006
1.0558385
1.0854895
1.1049941
1.1295219
1.1639467
1.1984552
1.2621627
1.2776617
1.3660739
1.398684
2.1212178
1.9883298
4.03162
3.5506916
3.2986931
3.1790091
3.3282805
3.4904472
4.4551051
3.9693698
2.1036893
1.2729566
1.7298296
1.46248
0.74160918
0.83989271
0.71153317
0.73103384
0.49244158
0.51507432
0.86717675
1.073549
1.1114652
1.167055
1.2534713
1.4039592
1.3823079
1.3147999
1.3705266
1.461457
1.918514
1.7380636
1.8562379
1.9577233
2.2235164
2.2681555
2.15062
2.2259236
2.3437852
2.4977675
2.6763289
3.0267018
3.2814588
3.1013004
2.7099097
2.686493
2.806872
3.0263522
3.1687192
3.0988888
3.0066084
3.134532
3.3424078
3.5917155
4.0321061
4.3271949
4.0275207
3.3949913
3.2029797
3.3055255
3.490933
4.0332828
3.9450451
3.4092414
3.1483895
3.1450469
3.3339556
3.5539868
4.1294196
1.860087
1.6266313
1.5992566
1.5332331
1.4929456
1.4790737
1.35298
1.1099481
0.92122415
0.60283184
0.35605945
0.78381052
1.1086203
1.4255516
1.7307941
2.1448381
2.163074
2.2206603
2.3513131
2.5120294
2.6818987
2.8597461
3.0491197
3.2488697
3.5190479
3.5150831
3.5048889
3.5614693
3.6664367
3.7962445
3.9433747
4.1067578
4.2881172
4.4944003
4.7317156
5.0697107
5.0798638
4.7033827
4.5032497
4.3951131
4.3479363
4.3219311
4.3323888
4.3823737
4.4668994
4.585623
4.740422
4.9564876
4.8192686
4.4945448
4.3253351
4.2039874
4.1210428
4.0580839
4.0147049
3.9913836
3.9988542
4.0358496
4.0999214
4.1912583
4.3100131
4.4554812
4.5738487
4.0721317
3.8956468
3.7397454
3.607985
3.4903902
3.3881135
3.3037362
3.2382736
3.190048
3.1573298
3.1411725
3.1557456
3.1955275
3.2588724
3.3465968
3.4553052
3.6101597
3.8550109
)
;
    }
    Outlet
    {
        type            calculated;
        value           uniform 0;
    }
}


// ************************************************************************* //
