# Force coefficients
# dragDir       : (1.00000000e+00 0.00000000e+00 0.00000000e+00)
# sideDir       : (0.00000000e+00 0.00000000e+00 -1.00000000e+00)
# liftDir       : (0.00000000e+00 1.00000000e+00 0.00000000e+00)
# rollAxis      : (1.00000000e+00 0.00000000e+00 0.00000000e+00)
# pitchAxis     : (0.00000000e+00 0.00000000e+00 -1.00000000e+00)
# yawAxis       : (0.00000000e+00 1.00000000e+00 0.00000000e+00)
# magUInf       : 9.46572765e-02
# lRef          : 1.00000000e+00
# Aref          : 1.00000000e+00
# CofR          : (0.00000000e+00 0.00000000e+00 0.00000000e+00)
#
# Time          	Cd              	Cs              	Cl              	CmRoll          	CmPitch         	CmYaw           	Cd(f)           	Cd(r)           	Cs(f)           	Cs(r)           	Cl(f)           	Cl(r)           
1               	4.66711558e+01	2.56866818e-19	-1.27748287e+02	6.38741433e+01	8.10023457e+01	2.33355779e+01	8.72097212e+01	-4.05385654e+01	2.33355779e+01	-2.33355779e+01	1.71282024e+01	-1.44876489e+02
2               	7.25589660e+00	2.38720012e-19	-1.22287947e+01	6.11439737e+00	1.02363453e+01	3.62794830e+00	9.74234567e+00	-2.48644907e+00	3.62794830e+00	-3.62794830e+00	4.12194792e+00	-1.63507427e+01
3               	-3.72510425e+00	2.08407313e-19	1.34779187e+01	-6.73895936e+00	-3.86779624e+00	-1.86255212e+00	-8.60151148e+00	4.87640724e+00	-1.86255212e+00	1.86255212e+00	2.87116311e+00	1.06067556e+01
4               	-2.86117672e-01	2.26500461e-19	1.48643362e+01	-7.43216809e+00	-4.00706663e+00	-1.43058836e-01	-7.57522693e+00	7.28910926e+00	-1.43058836e-01	1.43058836e-01	3.42510146e+00	1.14392347e+01
5               	5.33178369e-01	2.20527106e-19	4.10806818e+00	-2.05403409e+00	-1.44882452e+00	2.66589184e-01	-1.78744491e+00	2.32062328e+00	2.66589184e-01	-2.66589184e-01	6.05209570e-01	3.50285861e+00
6               	3.77704450e-01	2.21464059e-19	-3.39138967e+00	1.69569483e+00	1.01007793e+00	1.88852225e-01	1.88454706e+00	-1.50684261e+00	1.88852225e-01	-1.88852225e-01	-6.85616905e-01	-2.70577276e+00
7               	-5.31448884e-01	2.19980941e-19	-5.44626212e+00	2.72313106e+00	9.60862547e-01	-2.65724442e-01	2.45740662e+00	-2.98885550e+00	-2.65724442e-01	2.65724442e-01	-1.76226851e+00	-3.68399361e+00
8               	-7.58292646e-01	2.17588782e-19	-4.75843632e+00	2.37921816e+00	4.61738854e-01	-3.79146323e-01	2.00007184e+00	-2.75836448e+00	-3.79146323e-01	3.79146323e-01	-1.91747930e+00	-2.84095701e+00
9               	-7.19742191e-01	2.15360303e-19	-1.84874462e+00	9.24372308e-01	-4.39714784e-01	-3.59871095e-01	5.64501212e-01	-1.28424340e+00	-3.59871095e-01	3.59871095e-01	-1.36408709e+00	-4.84657524e-01
10              	-3.62561104e-01	2.13604398e-19	-4.76409072e-01	2.38204536e-01	-4.48488481e-01	-1.81280552e-01	5.69239838e-02	-4.19485088e-01	-1.81280552e-01	1.81280552e-01	-6.86693017e-01	2.10283945e-01
11              	-1.20197534e-01	2.12399941e-19	8.09283434e-01	-4.04641717e-01	-5.43382916e-01	-6.00987671e-02	-4.64740484e-01	3.44542950e-01	-6.00987671e-02	6.00987671e-02	-1.38741199e-01	9.48024633e-01
12              	1.82595279e-01	2.11392259e-19	1.00528087e+00	-5.02640436e-01	-2.37167740e-01	9.12976393e-02	-4.11342797e-01	5.93938075e-01	9.12976393e-02	-9.12976393e-02	2.65472696e-01	7.39808176e-01
13              	2.34122248e-01	2.10097430e-19	1.00482145e+00	-5.02410727e-01	-1.58873641e-01	1.17061124e-01	-3.85349603e-01	6.19471852e-01	1.17061124e-01	-1.17061124e-01	3.43537086e-01	6.61284369e-01
14              	3.45488945e-01	2.08875283e-19	3.39169242e-01	-1.69584621e-01	2.03223297e-01	1.72744472e-01	3.15985109e-03	3.42329093e-01	1.72744472e-01	-1.72744472e-01	3.72807918e-01	-3.36386761e-02
15              	2.63312279e-01	2.07627791e-19	1.04607969e-01	-5.23039845e-02	1.96912445e-01	1.31656140e-01	7.93521550e-02	1.83960124e-01	1.31656140e-01	-1.31656140e-01	2.49216430e-01	-1.44608461e-01
16              	2.36928746e-01	2.06623643e-19	-6.98169315e-01	3.49084657e-01	4.13809266e-01	1.18464373e-01	4.67549030e-01	-2.30620284e-01	1.18464373e-01	-1.18464373e-01	6.47246087e-02	-7.62893924e-01
17              	1.37529703e-01	2.05708167e-19	-7.86964692e-01	3.93482346e-01	3.14989556e-01	6.87648514e-02	4.62247198e-01	-3.24717495e-01	6.87648514e-02	-6.87648514e-02	-7.84927906e-02	-7.08471902e-01
18              	1.15582339e-01	2.04853942e-19	-1.06473620e+00	5.32368101e-01	3.61876162e-01	5.77911697e-02	5.90159271e-01	-4.74576931e-01	5.77911697e-02	-5.77911697e-02	-1.70491939e-01	-8.94244263e-01
19              	3.20919595e-02	2.03920231e-19	-8.69746397e-01	4.34873198e-01	1.96968642e-01	1.60459798e-02	4.50919178e-01	-4.18827219e-01	1.60459798e-02	-1.60459798e-02	-2.37904557e-01	-6.31841840e-01
20              	3.87083728e-02	2.03071951e-19	-9.17002762e-01	4.58501381e-01	2.16699608e-01	1.93541864e-02	4.77855567e-01	-4.39147195e-01	1.93541864e-02	-1.93541864e-02	-2.41801773e-01	-6.75200989e-01
21              	-4.48890162e-03	2.02237576e-19	-5.40447105e-01	2.70223553e-01	5.13303163e-02	-2.24445081e-03	2.67979102e-01	-2.72468003e-01	-2.24445081e-03	2.24445081e-03	-2.18893236e-01	-3.21553869e-01
22              	1.98697423e-02	2.01526412e-19	-5.81891945e-01	2.90945972e-01	9.80844945e-02	9.93487113e-03	3.00880844e-01	-2.81011101e-01	9.93487113e-03	-9.93487113e-03	-1.92861478e-01	-3.89030467e-01
23              	1.24318257e-02	2.00822492e-19	-3.31675961e-01	1.65837981e-01	2.42557549e-02	6.21591285e-03	1.72053893e-01	-1.59622068e-01	6.21591285e-03	-6.21591285e-03	-1.41582226e-01	-1.90093735e-01
24              	4.78128716e-02	2.00185314e-19	-3.59581981e-01	1.79790991e-01	8.37899778e-02	2.39064358e-02	2.03697426e-01	-1.55884555e-01	2.39064358e-02	-2.39064358e-02	-9.60010128e-02	-2.63580968e-01
25              	4.32406877e-02	1.99618953e-19	-3.21765478e-01	1.60882739e-01	7.37328792e-02	2.16203439e-02	1.82503083e-01	-1.39262395e-01	2.16203439e-02	-2.16203439e-02	-8.71498596e-02	-2.34615618e-01
26              	8.11292455e-02	1.99089691e-19	-3.85347159e-01	1.92673579e-01	1.45108928e-01	4.05646228e-02	2.33238202e-01	-1.52108957e-01	4.05646228e-02	-4.05646228e-02	-4.75646513e-02	-3.37782507e-01
27              	7.32491831e-02	1.98528000e-19	-4.05999731e-01	2.02999865e-01	1.42095408e-01	3.66245916e-02	2.39624457e-01	-1.66375274e-01	3.66245916e-02	-3.66245916e-02	-6.09044570e-02	-3.45095274e-01
28              	9.80457354e-02	1.98015252e-19	-5.10885065e-01	2.55442532e-01	2.07300306e-01	4.90228677e-02	3.04465400e-01	-2.06419665e-01	4.90228677e-02	-4.90228677e-02	-4.81422260e-02	-4.62742839e-01
29              	8.80841111e-02	1.97479337e-19	-5.25001534e-01	2.62500767e-01	1.97835340e-01	4.40420556e-02	3.06542822e-01	-2.18458711e-01	4.40420556e-02	-4.40420556e-02	-6.46654269e-02	-4.60336107e-01
30              	9.61799506e-02	1.96914032e-19	-6.29782584e-01	3.14891292e-01	2.40444792e-01	4.80899753e-02	3.62981267e-01	-2.66801317e-01	4.80899753e-02	-4.80899753e-02	-7.44465000e-02	-5.55336084e-01
31              	8.64145685e-02	1.96248218e-19	-6.19921092e-01	3.09960546e-01	2.25878963e-01	4.32072843e-02	3.53167830e-01	-2.66753262e-01	4.32072843e-02	-4.32072843e-02	-8.40815832e-02	-5.35839509e-01
32              	8.54914123e-02	1.95415631e-19	-6.72031157e-01	3.36015579e-01	2.41126869e-01	4.27457061e-02	3.78761285e-01	-2.93269873e-01	4.27457061e-02	-4.27457061e-02	-9.48887095e-02	-5.77142448e-01
33              	7.65562540e-02	1.94704799e-19	-6.33147064e-01	3.16573532e-01	2.20221769e-01	3.82781270e-02	3.54851659e-01	-2.78295405e-01	3.82781270e-02	-3.82781270e-02	-9.63517624e-02	-5.36795301e-01
34              	7.52163122e-02	1.94159254e-19	-6.47540102e-01	3.23770051e-01	2.23398885e-01	3.76081561e-02	3.61378207e-01	-2.86161895e-01	3.76081561e-02	-3.76081561e-02	-1.00371166e-01	-5.47168936e-01
35              	6.76129121e-02	1.93615961e-19	-5.91089296e-01	2.95544648e-01	1.98986648e-01	3.38064560e-02	3.29351104e-01	-2.61738192e-01	3.38064560e-02	-3.38064560e-02	-9.65580000e-02	-4.94531296e-01
36              	6.88764151e-02	1.93078539e-19	-5.97081429e-01	2.98540714e-01	2.04094551e-01	3.44382075e-02	3.32978922e-01	-2.64102507e-01	3.44382075e-02	-3.44382075e-02	-9.44461636e-02	-5.02635265e-01
37              	6.63636354e-02	1.92562979e-19	-5.64682672e-01	2.82341336e-01	1.94354523e-01	3.31818177e-02	3.15523154e-01	-2.49159518e-01	3.31818177e-02	-3.31818177e-02	-8.79868132e-02	-4.76695859e-01
38              	6.94172615e-02	1.92077913e-19	-5.65904258e-01	2.82952129e-01	2.00332776e-01	3.47086308e-02	3.17660760e-01	-2.48243498e-01	3.47086308e-02	-3.47086308e-02	-8.26193525e-02	-4.83284905e-01
39              	6.94673542e-02	1.91610729e-19	-5.71096007e-01	2.85548004e-01	2.04256797e-01	3.47336771e-02	3.20281681e-01	-2.50814326e-01	3.47336771e-02	-3.47336771e-02	-8.12912069e-02	-4.89804800e-01
40              	7.45097524e-02	1.91168111e-19	-5.84544075e-01	2.92272037e-01	2.16549675e-01	3.72548762e-02	3.29526914e-01	-2.55017161e-01	3.72548762e-02	-3.72548762e-02	-7.57223620e-02	-5.08821713e-01
41              	7.70451293e-02	1.90735625e-19	-6.08507063e-01	3.04253531e-01	2.27651725e-01	3.85225647e-02	3.42776096e-01	-2.65730967e-01	3.85225647e-02	-3.85225647e-02	-7.66018068e-02	-5.31905256e-01
42              	8.15670401e-02	1.90325364e-19	-6.25950407e-01	3.12975203e-01	2.39719390e-01	4.07835200e-02	3.53758723e-01	-2.72191683e-01	4.07835200e-02	-4.07835200e-02	-7.32558135e-02	-5.52694593e-01
43              	8.39571620e-02	1.89928212e-19	-6.38915127e-01	3.19457563e-01	2.47051980e-01	4.19785810e-02	3.61436144e-01	-2.77478982e-01	4.19785810e-02	-4.19785810e-02	-7.24055837e-02	-5.66509543e-01
44              	8.54976831e-02	1.89548330e-19	-6.50456290e-01	3.25228145e-01	2.53538168e-01	4.27488415e-02	3.67976986e-01	-2.82479303e-01	4.27488415e-02	-4.27488415e-02	-7.16899765e-02	-5.78766313e-01
45              	8.65458036e-02	1.89200004e-19	-6.51482187e-01	3.25741094e-01	2.55943215e-01	4.32729018e-02	3.69013995e-01	-2.82468192e-01	4.32729018e-02	-4.32729018e-02	-6.97978790e-02	-5.81684308e-01
46              	8.61457360e-02	1.88886011e-19	-6.55503827e-01	3.27751913e-01	2.57847415e-01	4.30728680e-02	3.70824781e-01	-2.84679045e-01	4.30728680e-02	-4.30728680e-02	-6.99044984e-02	-5.85599328e-01
47              	8.44808608e-02	1.88594323e-19	-6.59770981e-01	3.29885491e-01	2.57998297e-01	4.22404304e-02	3.72125921e-01	-2.87645060e-01	4.22404304e-02	-4.22404304e-02	-7.18871932e-02	-5.87883788e-01
48              	8.30585740e-02	1.88317274e-19	-6.63456254e-01	3.31728127e-01	2.58443928e-01	4.15292870e-02	3.73257414e-01	-2.90198840e-01	4.15292870e-02	-4.15292870e-02	-7.32841990e-02	-5.90172055e-01
49              	8.18627045e-02	1.88046888e-19	-6.67800728e-01	3.33900364e-01	2.59359528e-01	4.09313522e-02	3.74831716e-01	-2.92969012e-01	4.09313522e-02	-4.09313522e-02	-7.45408360e-02	-5.93259892e-01
50              	8.12148442e-02	1.87792929e-19	-6.72492099e-01	3.36246049e-01	2.61146605e-01	4.06074221e-02	3.76853471e-01	-2.95638627e-01	4.06074221e-02	-4.06074221e-02	-7.50994444e-02	-5.97392654e-01
51              	8.10071558e-02	1.87551108e-19	-6.75946295e-01	3.37973147e-01	2.62705216e-01	4.05035779e-02	3.78476725e-01	-2.97469569e-01	4.05035779e-02	-4.05035779e-02	-7.52679313e-02	-6.00678363e-01
52              	8.10224987e-02	1.87322203e-19	-6.79171840e-01	3.39585920e-01	2.64384466e-01	4.05112493e-02	3.80097169e-01	-2.99074670e-01	4.05112493e-02	-4.05112493e-02	-7.52014534e-02	-6.03970386e-01
53              	8.18711466e-02	1.87109659e-19	-6.80778498e-01	3.40389249e-01	2.66071477e-01	4.09355733e-02	3.81324822e-01	-2.99453676e-01	4.09355733e-02	-4.09355733e-02	-7.43177723e-02	-6.06460725e-01
54              	8.32820892e-02	1.86910007e-19	-6.83383503e-01	3.41691751e-01	2.69023788e-01	4.16410446e-02	3.83332796e-01	-3.00050707e-01	4.16410446e-02	-4.16410446e-02	-7.26679631e-02	-6.10715540e-01
55              	8.52010478e-02	1.86712297e-19	-6.87055544e-01	3.43527772e-01	2.73087992e-01	4.26005239e-02	3.86128296e-01	-3.00927248e-01	4.26005239e-02	-4.26005239e-02	-7.04397799e-02	-6.16615764e-01
56              	8.68862736e-02	1.86512800e-19	-6.91950726e-01	3.45975363e-01	2.77656122e-01	4.34431368e-02	3.89418500e-01	-3.02532226e-01	4.34431368e-02	-4.34431368e-02	-6.83192415e-02	-6.23631485e-01
57              	8.84762346e-02	1.86316054e-19	-6.96919300e-01	3.48459650e-01	2.81953398e-01	4.42381173e-02	3.92697767e-01	-3.04221533e-01	4.42381173e-02	-4.42381173e-02	-6.65062521e-02	-6.30413048e-01
58              	8.91848496e-02	1.86124207e-19	-7.02744622e-01	3.51372311e-01	2.85613294e-01	4.45924248e-02	3.95964736e-01	-3.06779886e-01	4.45924248e-02	-4.45924248e-02	-6.57590170e-02	-6.36985604e-01
59              	8.96963229e-02	1.85936478e-19	-7.09039001e-01	3.54519501e-01	2.88918331e-01	4.48481615e-02	3.99367662e-01	-3.09671339e-01	4.48481615e-02	-4.48481615e-02	-6.56011699e-02	-6.43437832e-01
60              	8.96121672e-02	1.85752574e-19	-7.13020483e-01	3.56510242e-01	2.90759307e-01	4.48060836e-02	4.01316325e-01	-3.11704158e-01	4.48060836e-02	-4.48060836e-02	-6.57509344e-02	-6.47269549e-01
61              	8.94904502e-02	1.85574484e-19	-7.16011544e-01	3.58005772e-01	2.91897703e-01	4.47452251e-02	4.02750997e-01	-3.13260547e-01	4.47452251e-02	-4.47452251e-02	-6.61080695e-02	-6.49903475e-01
62              	8.90073356e-02	1.85402923e-19	-7.17296522e-01	3.58648261e-01	2.92038868e-01	4.45036678e-02	4.03151929e-01	-3.14144593e-01	4.45036678e-02	-4.45036678e-02	-6.66093935e-02	-6.50687129e-01
63              	8.88146238e-02	1.85238173e-19	-7.18227232e-01	3.59113616e-01	2.92371283e-01	4.44073119e-02	4.03520928e-01	-3.14706304e-01	4.44073119e-02	-4.44073119e-02	-6.67423326e-02	-6.51484899e-01
64              	8.87459525e-02	1.85071372e-19	-7.19875127e-01	3.59937564e-01	2.93306971e-01	4.43729763e-02	4.04310540e-01	-3.15564587e-01	4.43729763e-02	-4.43729763e-02	-6.66305923e-02	-6.53244535e-01
65              	8.90856890e-02	1.84907149e-19	-7.22505980e-01	3.61252990e-01	2.94874323e-01	4.45428445e-02	4.05795834e-01	-3.16710145e-01	4.45428445e-02	-4.45428445e-02	-6.63786674e-02	-6.56127312e-01
66              	8.94745416e-02	1.84748637e-19	-7.26065900e-01	3.63032950e-01	2.96853459e-01	4.47372708e-02	4.07770221e-01	-3.18295679e-01	4.47372708e-02	-4.47372708e-02	-6.61794908e-02	-6.59886409e-01
67              	9.01303678e-02	1.84589273e-19	-7.30585062e-01	3.65292531e-01	2.99315581e-01	4.50651839e-02	4.10357715e-01	-3.20227347e-01	4.50651839e-02	-4.50651839e-02	-6.59769503e-02	-6.64608112e-01
68              	9.07443691e-02	1.84423586e-19	-7.34883507e-01	3.67441753e-01	3.01692234e-01	4.53721845e-02	4.12813938e-01	-3.22069569e-01	4.53721845e-02	-4.53721845e-02	-6.57495197e-02	-6.69133987e-01
69              	9.13778259e-02	1.84259227e-19	-7.37990297e-01	3.68995148e-01	3.03585208e-01	4.56889130e-02	4.14684061e-01	-3.23306235e-01	4.56889130e-02	-4.56889130e-02	-6.54099404e-02	-6.72580356e-01
70              	9.20308546e-02	1.84093838e-19	-7.41336587e-01	3.70668293e-01	3.05603938e-01	4.60154273e-02	4.16683721e-01	-3.24652866e-01	4.60154273e-02	-4.60154273e-02	-6.50643548e-02	-6.76272232e-01
71              	9.24642825e-02	1.83927928e-19	-7.43305880e-01	3.71652940e-01	3.07018053e-01	4.62321412e-02	4.17885081e-01	-3.25420799e-01	4.62321412e-02	-4.62321412e-02	-6.46348868e-02	-6.78670993e-01
72              	9.30879827e-02	1.83758421e-19	-7.46475034e-01	3.73237517e-01	3.09191701e-01	4.65439913e-02	4.19781508e-01	-3.26693526e-01	4.65439913e-02	-4.65439913e-02	-6.40458156e-02	-6.82429218e-01
73              	9.34427592e-02	1.83590108e-19	-7.48530545e-01	3.74265272e-01	3.10738432e-01	4.67213796e-02	4.20986652e-01	-3.27543893e-01	4.67213796e-02	-4.67213796e-02	-6.35268403e-02	-6.85003704e-01
74              	9.37345683e-02	1.83423249e-19	-7.49674313e-01	3.74837156e-01	3.11891114e-01	4.68672841e-02	4.21704441e-01	-3.27969872e-01	4.68672841e-02	-4.68672841e-02	-6.29460428e-02	-6.86728270e-01
75              	9.40264550e-02	1.83250873e-19	-7.51194271e-01	3.75597136e-01	3.13201203e-01	4.70132275e-02	4.22610363e-01	-3.28583908e-01	4.70132275e-02	-4.70132275e-02	-6.23959330e-02	-6.88798338e-01
76              	9.41724122e-02	1.83073025e-19	-7.51397220e-01	3.75698610e-01	3.13699116e-01	4.70862061e-02	4.22784816e-01	-3.28612404e-01	4.70862061e-02	-4.70862061e-02	-6.19994941e-02	-6.89397726e-01
77              	9.42614747e-02	1.82891648e-19	-7.52060331e-01	3.76030165e-01	3.14306092e-01	4.71307373e-02	4.23160903e-01	-3.28899428e-01	4.71307373e-02	-4.71307373e-02	-6.17240737e-02	-6.90336257e-01
78              	9.44201185e-02	1.82726582e-19	-7.52203837e-01	3.76101919e-01	3.14555748e-01	4.72100593e-02	4.23311978e-01	-3.28891859e-01	4.72100593e-02	-4.72100593e-02	-6.15461709e-02	-6.90657666e-01
79              	9.45327460e-02	1.82576887e-19	-7.54056108e-01	3.77028054e-01	3.15409205e-01	4.72663730e-02	4.24294427e-01	-3.29761681e-01	4.72663730e-02	-4.72663730e-02	-6.16188485e-02	-6.92437260e-01
80              	9.48139259e-02	1.82422422e-19	-7.56408160e-01	3.78204080e-01	3.16454559e-01	4.74069629e-02	4.25611043e-01	-3.30797117e-01	4.74069629e-02	-4.74069629e-02	-6.17495205e-02	-6.94658639e-01
81              	9.50539160e-02	1.82265192e-19	-7.60449200e-01	3.80224600e-01	3.18199944e-01	4.75269580e-02	4.27751558e-01	-3.32697642e-01	4.75269580e-02	-4.75269580e-02	-6.20246558e-02	-6.98424544e-01
82              	9.54914027e-02	1.82104446e-19	-7.63992351e-01	3.81996176e-01	3.19856418e-01	4.77457013e-02	4.29741877e-01	-3.34250474e-01	4.77457013e-02	-4.77457013e-02	-6.21397576e-02	-7.01852594e-01
83              	9.57565628e-02	1.81942797e-19	-7.67846250e-01	3.83923125e-01	3.21606422e-01	4.78782814e-02	4.31801406e-01	-3.36044843e-01	4.78782814e-02	-4.78782814e-02	-6.23167033e-02	-7.05529546e-01
84              	9.61979562e-02	1.81779647e-19	-7.70395235e-01	3.85197618e-01	3.22951653e-01	4.80989781e-02	4.33296596e-01	-3.37098639e-01	4.80989781e-02	-4.80989781e-02	-6.22459641e-02	-7.08149271e-01
85              	9.63977716e-02	1.81615229e-19	-7.73020123e-01	3.86510061e-01	3.24317337e-01	4.81988858e-02	4.34708947e-01	-3.38311176e-01	4.81988858e-02	-4.81988858e-02	-6.21927246e-02	-7.10827398e-01
86              	9.67817763e-02	1.81449222e-19	-7.74019364e-01	3.87009682e-01	3.25142969e-01	4.83908881e-02	4.35400570e-01	-3.38618794e-01	4.83908881e-02	-4.83908881e-02	-6.18667131e-02	-7.12152651e-01
87              	9.69169003e-02	1.81282851e-19	-7.75172543e-01	3.87586272e-01	3.26012541e-01	4.84584502e-02	4.36044722e-01	-3.39127822e-01	4.84584502e-02	-4.84584502e-02	-6.15737305e-02	-7.13598813e-01
88              	9.73205568e-02	1.81115790e-19	-7.75261405e-01	3.87630702e-01	3.26639465e-01	4.86602784e-02	4.36290981e-01	-3.38970424e-01	4.86602784e-02	-4.86602784e-02	-6.09912374e-02	-7.14270168e-01
89              	9.74213401e-02	1.80948505e-19	-7.75939480e-01	3.87969740e-01	3.27417650e-01	4.87106701e-02	4.36680410e-01	-3.39259070e-01	4.87106701e-02	-4.87106701e-02	-6.05520895e-02	-7.15387390e-01
90              	9.78096461e-02	1.80781216e-19	-7.75737181e-01	3.87868590e-01	3.27937500e-01	4.89048231e-02	4.36773413e-01	-3.38963767e-01	4.89048231e-02	-4.89048231e-02	-5.99310899e-02	-7.15806091e-01
91              	9.78495664e-02	1.80615274e-19	-7.76289899e-01	3.88144949e-01	3.28558429e-01	4.89247832e-02	4.37069733e-01	-3.39220166e-01	4.89247832e-02	-4.89247832e-02	-5.95865204e-02	-7.16703378e-01
92              	9.81896561e-02	1.80461351e-19	-7.76278067e-01	3.88139034e-01	3.28984370e-01	4.90948280e-02	4.37233862e-01	-3.39044206e-01	4.90948280e-02	-4.90948280e-02	-5.91546641e-02	-7.17123403e-01
93              	9.81998793e-02	1.80330048e-19	-7.77609094e-01	3.88804547e-01	3.29742772e-01	4.90999397e-02	4.37904487e-01	-3.39704607e-01	4.90999397e-02	-4.90999397e-02	-5.90617748e-02	-7.18547319e-01
94              	9.85993602e-02	1.80199756e-19	-7.79128722e-01	3.89564361e-01	3.30625144e-01	4.92996801e-02	4.38864041e-01	-3.40264681e-01	4.92996801e-02	-4.92996801e-02	-5.89392176e-02	-7.20189505e-01
95              	9.86140442e-02	1.80070397e-19	-7.82242894e-01	3.91121447e-01	3.31888296e-01	4.93070221e-02	4.40428469e-01	-3.41814425e-01	4.93070221e-02	-4.93070221e-02	-5.92331508e-02	-7.23009743e-01
96              	9.90422174e-02	1.79942590e-19	-7.84537786e-01	3.92268893e-01	3.32949997e-01	4.95211087e-02	4.41790002e-01	-3.42747784e-01	4.95211087e-02	-4.95211087e-02	-5.93188963e-02	-7.25218890e-01
97              	9.90290425e-02	1.79815762e-19	-7.87972108e-01	3.93986054e-01	3.34264893e-01	4.95145213e-02	4.43500575e-01	-3.44471533e-01	4.95145213e-02	-4.95145213e-02	-5.97211607e-02	-7.28250948e-01
98              	9.94352516e-02	1.79689806e-19	-7.89678046e-01	3.94839023e-01	3.35122103e-01	4.97176258e-02	4.44556649e-01	-3.45121397e-01	4.97176258e-02	-4.97176258e-02	-5.97169197e-02	-7.29961127e-01
99              	9.94059265e-02	1.79563764e-19	-7.92345406e-01	3.96172703e-01	3.36244851e-01	4.97029633e-02	4.45875666e-01	-3.46469740e-01	4.97029633e-02	-4.97029633e-02	-5.99278518e-02	-7.32417554e-01
100             	9.98394240e-02	1.79438384e-19	-7.93479927e-01	3.96739963e-01	3.37039264e-01	4.99197120e-02	4.46659675e-01	-3.46820251e-01	4.99197120e-02	-4.99197120e-02	-5.97006997e-02	-7.33779227e-01
101             	9.98005010e-02	1.79312940e-19	-7.95008769e-01	3.97504384e-01	3.37880523e-01	4.99002505e-02	4.47404635e-01	-3.47604134e-01	4.99002505e-02	-4.99002505e-02	-5.96238614e-02	-7.35384908e-01
102             	1.00247543e-01	1.79187831e-19	-7.95339026e-01	3.97669513e-01	3.38512109e-01	5.01237715e-02	4.47793284e-01	-3.47545741e-01	5.01237715e-02	-5.01237715e-02	-5.91574037e-02	-7.36181622e-01
103             	1.00191101e-01	1.79062615e-19	-7.96228634e-01	3.98114317e-01	3.39193403e-01	5.00955504e-02	4.48209868e-01	-3.48018767e-01	5.00955504e-02	-5.00955504e-02	-5.89209137e-02	-7.37307721e-01
104             	1.00620842e-01	1.78938309e-19	-7.96013898e-01	3.98006949e-01	3.39621152e-01	5.03104209e-02	4.48317370e-01	-3.47696528e-01	5.03104209e-02	-5.03104209e-02	-5.83857970e-02	-7.37628101e-01
105             	1.00524449e-01	1.78814738e-19	-7.96409222e-01	3.98204611e-01	3.40073189e-01	5.02622243e-02	4.48466835e-01	-3.47942386e-01	5.02622243e-02	-5.02622243e-02	-5.81314216e-02	-7.38277800e-01
106             	1.00901012e-01	1.78692425e-19	-7.96011260e-01	3.98005630e-01	3.40351387e-01	5.04505060e-02	4.48456136e-01	-3.47555124e-01	5.04505060e-02	-5.04505060e-02	-5.76542432e-02	-7.38357017e-01
107             	1.00782681e-01	1.78570374e-19	-7.96626724e-01	3.98313362e-01	3.40789434e-01	5.03913405e-02	4.48704703e-01	-3.47922022e-01	5.03913405e-02	-5.03913405e-02	-5.75239276e-02	-7.39102796e-01
108             	1.01147925e-01	1.78449395e-19	-7.96811083e-01	3.98405541e-01	3.41168738e-01	5.05739627e-02	4.48979504e-01	-3.47831579e-01	5.05739627e-02	-5.05739627e-02	-5.72368037e-02	-7.39574279e-01
109             	1.01019278e-01	1.78329888e-19	-7.98340604e-01	3.99170302e-01	3.41845010e-01	5.05096392e-02	4.49679941e-01	-3.48660663e-01	5.05096392e-02	-5.05096392e-02	-5.73252920e-02	-7.41015312e-01
110             	1.01397801e-01	1.78210853e-19	-7.99319557e-01	3.99659779e-01	3.42435877e-01	5.06989004e-02	4.50358679e-01	-3.48960878e-01	5.06989004e-02	-5.06989004e-02	-5.72239020e-02	-7.42095655e-01
111             	1.01224371e-01	1.78093178e-19	-8.01725726e-01	4.00862863e-01	3.43350945e-01	5.06121855e-02	4.51475048e-01	-3.50250677e-01	5.06121855e-02	-5.06121855e-02	-5.75119182e-02	-7.44213808e-01
112             	1.01596996e-01	1.77976072e-19	-8.02803998e-01	4.01401999e-01	3.43911745e-01	5.07984982e-02	4.52200497e-01	-3.50603501e-01	5.07984982e-02	-5.07984982e-02	-5.74902546e-02	-7.45313744e-01
113             	1.01391143e-01	1.77859472e-19	-8.04912020e-01	4.02456010e-01	3.44687115e-01	5.06955717e-02	4.53151582e-01	-3.51760438e-01	5.06955717e-02	-5.06955717e-02	-5.77688952e-02	-7.47143125e-01
114             	1.01752490e-01	1.77742922e-19	-8.05828874e-01	4.02914437e-01	3.45214176e-01	5.08762449e-02	4.53790682e-01	-3.52038192e-01	5.08762449e-02	-5.08762449e-02	-5.77002614e-02	-7.48128613e-01
115             	1.01565403e-01	1.77627254e-19	-8.07412610e-01	4.03706305e-01	3.45888613e-01	5.07827013e-02	4.54489006e-01	-3.52923604e-01	5.07827013e-02	-5.07827013e-02	-5.78176922e-02	-7.49594918e-01
116             	1.01924158e-01	1.77510806e-19	-8.07779827e-01	4.03889914e-01	3.46308255e-01	5.09620788e-02	4.54851992e-01	-3.52927835e-01	5.09620788e-02	-5.09620788e-02	-5.75816583e-02	-7.50198169e-01
117             	1.01790030e-01	1.77395548e-19	-8.08654711e-01	4.04327356e-01	3.46833286e-01	5.08950151e-02	4.55222371e-01	-3.53432341e-01	5.08950151e-02	-5.08950151e-02	-5.74940700e-02	-7.51160641e-01
118             	1.02105455e-01	1.77280625e-19	-8.08302113e-01	4.04151056e-01	3.47029310e-01	5.10527277e-02	4.55203784e-01	-3.53098329e-01	5.10527277e-02	-5.10527277e-02	-5.71217458e-02	-7.51180367e-01
119             	1.01921638e-01	1.77166327e-19	-8.08481894e-01	4.04240947e-01	3.47278457e-01	5.09608192e-02	4.55201766e-01	-3.53280128e-01	5.09608192e-02	-5.09608192e-02	-5.69624905e-02	-7.51519404e-01
120             	1.02169542e-01	1.77052001e-19	-8.07790044e-01	4.03895022e-01	3.47318008e-01	5.10847708e-02	4.54979793e-01	-3.52810251e-01	5.10847708e-02	-5.10847708e-02	-5.65770138e-02	-7.51213030e-01
121             	1.01992917e-01	1.76938938e-19	-8.07770698e-01	4.03885349e-01	3.47451743e-01	5.09964586e-02	4.54881808e-01	-3.52888891e-01	5.09964586e-02	-5.09964586e-02	-5.64336065e-02	-7.51337092e-01
122             	1.02160882e-01	1.76826932e-19	-8.07049679e-01	4.03524840e-01	3.47416204e-01	5.10804408e-02	4.54605280e-01	-3.52444399e-01	5.10804408e-02	-5.10804408e-02	-5.61086361e-02	-7.50941043e-01
123             	1.02007091e-01	1.76716941e-19	-8.07073736e-01	4.03536868e-01	3.47523214e-01	5.10035455e-02	4.54540414e-01	-3.52533323e-01	5.10035455e-02	-5.10035455e-02	-5.60136539e-02	-7.51060083e-01
124             	1.02149877e-01	1.76607197e-19	-8.06641611e-01	4.03320806e-01	3.47531996e-01	5.10749383e-02	4.54395744e-01	-3.52245867e-01	5.10749383e-02	-5.10749383e-02	-5.57888100e-02	-7.50852801e-01
125             	1.02005911e-01	1.76498434e-19	-8.07036669e-01	4.03518335e-01	3.47732821e-01	5.10029553e-02	4.54521290e-01	-3.52515379e-01	5.10029553e-02	-5.10029553e-02	-5.57855136e-02	-7.51251155e-01
126             	1.02177878e-01	1.76388735e-19	-8.07202819e-01	4.03601410e-01	3.47927971e-01	5.10889391e-02	4.54690349e-01	-3.52512470e-01	5.10889391e-02	-5.10889391e-02	-5.56734383e-02	-7.51529381e-01
127             	1.02004294e-01	1.76279688e-19	-8.08464548e-01	4.04232274e-01	3.48414430e-01	5.10021469e-02	4.55234421e-01	-3.53230127e-01	5.10021469e-02	-5.10021469e-02	-5.58178440e-02	-7.52646704e-01
128             	1.02199982e-01	1.76170260e-19	-8.09139912e-01	4.04569956e-01	3.48775407e-01	5.10999911e-02	4.55669947e-01	-3.53469965e-01	5.10999911e-02	-5.10999911e-02	-5.57945486e-02	-7.53345363e-01
129             	1.02054546e-01	1.76062106e-19	-8.10587117e-01	4.05293558e-01	3.49331314e-01	5.10272728e-02	4.56320831e-01	-3.54266285e-01	5.10272728e-02	-5.10272728e-02	-5.59622444e-02	-7.54624872e-01
130             	1.02216657e-01	1.75954064e-19	-8.11088755e-01	4.05544377e-01	3.49633986e-01	5.11083283e-02	4.56652706e-01	-3.54436049e-01	5.11083283e-02	-5.11083283e-02	-5.59103916e-02	-7.55178363e-01
131             	1.02110178e-01	1.75847198e-19	-8.11892768e-01	4.05946384e-01	3.49988425e-01	5.10550890e-02	4.57001473e-01	-3.54891295e-01	5.10550890e-02	-5.10550890e-02	-5.59579591e-02	-7.55934809e-01
132             	1.02264225e-01	1.75739798e-19	-8.12182413e-01	4.06091207e-01	3.50288800e-01	5.11321127e-02	4.57223319e-01	-3.54959094e-01	5.11321127e-02	-5.11321127e-02	-5.58024068e-02	-7.56380006e-01
133             	1.02170356e-01	1.75633526e-19	-8.12378018e-01	4.06189009e-01	3.50465228e-01	5.10851782e-02	4.57274187e-01	-3.55103831e-01	5.10851782e-02	-5.10851782e-02	-5.57237815e-02	-7.56654237e-01
134             	1.02223740e-01	1.75526612e-19	-8.11857071e-01	4.05928535e-01	3.50481715e-01	5.11118699e-02	4.57040405e-01	-3.54816666e-01	5.11118699e-02	-5.11118699e-02	-5.54468203e-02	-7.56410251e-01
135             	1.02166915e-01	1.75420914e-19	-8.11519197e-01	4.05759599e-01	3.50505180e-01	5.10834574e-02	4.56843056e-01	-3.54676141e-01	5.10834574e-02	-5.10834574e-02	-5.52544189e-02	-7.56264779e-01
136             	1.02209419e-01	1.75315381e-19	-8.10689673e-01	4.05344836e-01	3.50419788e-01	5.11047095e-02	4.56449546e-01	-3.54240127e-01	5.11047095e-02	-5.11047095e-02	-5.49250480e-02	-7.55764625e-01
137             	1.02150109e-01	1.75209878e-19	-8.10132239e-01	4.05066119e-01	3.50352712e-01	5.10750546e-02	4.56141174e-01	-3.53991065e-01	5.10750546e-02	-5.10750546e-02	-5.47134077e-02	-7.55418831e-01
138             	1.02129432e-01	1.75105748e-19	-8.09316026e-01	4.04658013e-01	3.50212840e-01	5.10647162e-02	4.55722729e-01	-3.53593297e-01	5.10647162e-02	-5.10647162e-02	-5.44451730e-02	-7.54870853e-01
139             	1.02070920e-01	1.75001775e-19	-8.08938484e-01	4.04469242e-01	3.50152137e-01	5.10354599e-02	4.55504702e-01	-3.53433782e-01	5.10354599e-02	-5.10354599e-02	-5.43171053e-02	-7.54621379e-01
140             	1.02013013e-01	1.74898171e-19	-8.08517203e-01	4.04258602e-01	3.50095023e-01	5.10065064e-02	4.55265108e-01	-3.53252095e-01	5.10065064e-02	-5.10065064e-02	-5.41635782e-02	-7.54353625e-01
141             	1.01968174e-01	1.74794832e-19	-8.08509294e-01	4.04254647e-01	3.50134411e-01	5.09840872e-02	4.55238734e-01	-3.53270560e-01	5.09840872e-02	-5.09840872e-02	-5.41202356e-02	-7.54389058e-01
142             	1.01924244e-01	1.74692044e-19	-8.08537187e-01	4.04268594e-01	3.50216184e-01	5.09621221e-02	4.55230716e-01	-3.53306472e-01	5.09621221e-02	-5.09621221e-02	-5.40524101e-02	-7.54484777e-01
143             	1.01906405e-01	1.74589849e-19	-8.08980964e-01	4.04490482e-01	3.50432054e-01	5.09532026e-02	4.55443685e-01	-3.53537279e-01	5.09532026e-02	-5.09532026e-02	-5.40584281e-02	-7.54922536e-01
144             	1.01909523e-01	1.74489204e-19	-8.09394855e-01	4.04697428e-01	3.50683001e-01	5.09547614e-02	4.55652189e-01	-3.53742666e-01	5.09547614e-02	-5.09547614e-02	-5.40144265e-02	-7.55380429e-01