/*--------------------------------*- C++ -*----------------------------------*\
| =========                 |                                                 |
| \\      /  F ield         | OpenFOAM: The Open Source CFD Toolbox           |
|  \\    /   O peration     | Version:  v2006                                 |
|   \\  /    A nd           | Website:  www.openfoam.com                      |
|    \\/     M anipulation  |                                                 |
\*---------------------------------------------------------------------------*/
FoamFile
{
    version     2.0;
    format      ascii;
    class       volScalarField;
    location    "10000";
    object      alphat;
}
// * * * * * * * * * * * * * * * * * * * * * * * * * * * * * * * * * * * * * //

dimensions      [1 -1 -1 0 0 0 0];


internalField   nonuniform List<scalar> 
102907
(
2.9541477e-11
2.6584095e-10
4.1056557e-09
2.039465e-08
4.7764148e-08
7.1553052e-08
8.5015242e-08
9.0796784e-08
9.2743109e-08
9.3179584e-08
9.3164352e-08
9.3080188e-08
9.3023479e-08
9.2997618e-08
9.298918e-08
9.2989674e-08
9.2992467e-08
9.2994266e-08
9.2994552e-08
9.2993741e-08
9.2992776e-08
9.299191e-08
9.2991226e-08
9.2990866e-08
9.2990917e-08
9.2991084e-08
9.2991154e-08
9.2991123e-08
9.2991053e-08
9.2990997e-08
9.2990944e-08
9.2990903e-08
9.2990849e-08
9.2990804e-08
9.2990734e-08
9.2990665e-08
9.2990556e-08
9.2990468e-08
9.2990356e-08
9.2990224e-08
9.2990096e-08
9.2989953e-08
9.2989799e-08
9.2989629e-08
9.298945e-08
9.2989251e-08
9.2989045e-08
9.2988833e-08
9.2988621e-08
9.2988401e-08
9.2988173e-08
9.2987928e-08
9.2987666e-08
9.298738e-08
9.2987071e-08
9.2986734e-08
9.2986372e-08
9.2985992e-08
9.2985603e-08
9.2985212e-08
9.2984825e-08
9.2984442e-08
9.298406e-08
9.2983679e-08
9.2983296e-08
9.2982909e-08
9.2982519e-08
9.2982126e-08
9.298172e-08
9.2981302e-08
9.2980867e-08
9.2980422e-08
9.2979968e-08
9.297952e-08
9.2979076e-08
9.297866e-08
9.2978246e-08
9.2977843e-08
9.2977379e-08
9.2976834e-08
9.2976152e-08
3.0806491e-11
3.3734794e-10
5.1961205e-09
2.4287699e-08
5.3321155e-08
7.6072527e-08
8.777516e-08
9.2314187e-08
9.365336e-08
9.3856075e-08
9.377991e-08
9.3694661e-08
9.3648229e-08
9.3629644e-08
9.3624666e-08
9.362681e-08
9.3629504e-08
9.3630617e-08
9.3629978e-08
9.3628769e-08
9.3627486e-08
9.3626325e-08
9.3625353e-08
9.3624774e-08
9.3624557e-08
9.3624407e-08
9.362416e-08
9.362384e-08
9.3623493e-08
9.3623165e-08
9.3622839e-08
9.362253e-08
9.3622209e-08
9.3621895e-08
9.3621558e-08
9.362123e-08
9.3620865e-08
9.3620518e-08
9.3620146e-08
9.3619765e-08
9.3619382e-08
9.3618982e-08
9.3618564e-08
9.3618143e-08
9.3617711e-08
9.361726e-08
9.3616791e-08
9.361632e-08
9.3615846e-08
9.3615367e-08
9.3614873e-08
9.3614367e-08
9.3613837e-08
9.3613284e-08
9.3612697e-08
9.3612083e-08
9.3611433e-08
9.3610764e-08
9.3610071e-08
9.3609376e-08
9.3608673e-08
9.3607972e-08
9.3607261e-08
9.3606548e-08
9.3605819e-08
9.3605079e-08
9.3604319e-08
9.3603547e-08
9.3602746e-08
9.3601923e-08
9.360106e-08
9.360017e-08
9.3599245e-08
9.3598305e-08
9.359734e-08
9.3596377e-08
9.3595384e-08
9.3594373e-08
9.3593258e-08
9.3592013e-08
9.3590572e-08
3.2557183e-11
4.2757416e-10
6.506809e-09
2.8560643e-08
5.8835644e-08
8.0184347e-08
9.0112889e-08
9.3619015e-08
9.4478113e-08
9.451738e-08
9.4410953e-08
9.4333587e-08
9.4297831e-08
9.4284939e-08
9.4283643e-08
9.4286032e-08
9.4288029e-08
9.4288298e-08
9.4287174e-08
9.4285603e-08
9.428398e-08
9.4282517e-08
9.4281272e-08
9.4280474e-08
9.4280001e-08
9.4279555e-08
9.4279006e-08
9.4278404e-08
9.4277785e-08
9.4277189e-08
9.4276591e-08
9.427601e-08
9.4275419e-08
9.4274848e-08
9.427426e-08
9.4273685e-08
9.427307e-08
9.4272477e-08
9.4271854e-08
9.4271226e-08
9.4270582e-08
9.4269928e-08
9.4269262e-08
9.4268593e-08
9.4267916e-08
9.426722e-08
9.4266496e-08
9.4265768e-08
9.426504e-08
9.4264312e-08
9.4263567e-08
9.4262807e-08
9.4262019e-08
9.4261205e-08
9.4260349e-08
9.4259459e-08
9.4258527e-08
9.4257571e-08
9.4256589e-08
9.42556e-08
9.4254597e-08
9.425359e-08
9.4252565e-08
9.4251529e-08
9.4250466e-08
9.4249386e-08
9.4248269e-08
9.4247128e-08
9.4245939e-08
9.424472e-08
9.4243443e-08
9.4242127e-08
9.424075e-08
9.4239338e-08
9.4237873e-08
9.4236385e-08
9.4234836e-08
9.4233239e-08
9.4231499e-08
9.4229583e-08
9.4227405e-08
3.5005975e-11
5.4467956e-10
8.1296753e-09
3.3353783e-08
6.4387731e-08
8.3999169e-08
9.2198322e-08
9.4767283e-08
9.5246573e-08
9.5179383e-08
9.5065356e-08
9.5001065e-08
9.4974917e-08
9.4967389e-08
9.4968126e-08
9.4970155e-08
9.4971389e-08
9.4970988e-08
9.4969386e-08
9.4967453e-08
9.496551e-08
9.4963769e-08
9.4962275e-08
9.4961273e-08
9.4960539e-08
9.4959798e-08
9.4958958e-08
9.4958086e-08
9.4957209e-08
9.4956358e-08
9.4955506e-08
9.4954669e-08
9.4953823e-08
9.4952997e-08
9.4952158e-08
9.4951338e-08
9.4950485e-08
9.494966e-08
9.4948799e-08
9.4947943e-08
9.4947055e-08
9.4946161e-08
9.4945248e-08
9.4944338e-08
9.4943412e-08
9.4942484e-08
9.4941529e-08
9.4940568e-08
9.4939598e-08
9.4938629e-08
9.4937636e-08
9.493663e-08
9.493559e-08
9.4934523e-08
9.4933408e-08
9.4932256e-08
9.4931056e-08
9.4929832e-08
9.4928579e-08
9.4927313e-08
9.4926023e-08
9.4924723e-08
9.4923392e-08
9.4922047e-08
9.492066e-08
9.4919248e-08
9.4917785e-08
9.4916291e-08
9.4914736e-08
9.4913138e-08
9.4911468e-08
9.4909746e-08
9.490794e-08
9.4906077e-08
9.4904129e-08
9.4902133e-08
9.4900048e-08
9.489789e-08
9.4895552e-08
9.4892992e-08
9.4890105e-08
3.8368384e-11
6.9704338e-10
1.0117564e-08
3.8619168e-08
6.983833e-08
8.7453869e-08
9.4003757e-08
9.5783793e-08
9.5981421e-08
9.5855132e-08
9.5748625e-08
9.5698908e-08
9.5680682e-08
9.5677966e-08
9.5679046e-08
9.5680462e-08
9.5681018e-08
9.5679993e-08
9.5677961e-08
9.5675673e-08
9.5673434e-08
9.5671431e-08
9.5669724e-08
9.5668523e-08
9.5667534e-08
9.5666501e-08
9.5665388e-08
9.5664252e-08
9.5663132e-08
9.5662032e-08
9.5660941e-08
9.5659858e-08
9.5658777e-08
9.5657706e-08
9.5656632e-08
9.565557e-08
9.565449e-08
9.5653432e-08
9.5652347e-08
9.5651267e-08
9.5650157e-08
9.5649033e-08
9.5647894e-08
9.5646752e-08
9.5645599e-08
9.5644439e-08
9.5643263e-08
9.5642076e-08
9.5640878e-08
9.5639671e-08
9.5638445e-08
9.5637198e-08
9.5635922e-08
9.5634613e-08
9.5633258e-08
9.5631861e-08
9.5630419e-08
9.5628943e-08
9.5627428e-08
9.5625892e-08
9.5624324e-08
9.562274e-08
9.5621118e-08
9.5619473e-08
9.5617779e-08
9.5616053e-08
9.5614265e-08
9.561244e-08
9.5610543e-08
9.5608597e-08
9.5606556e-08
9.5604447e-08
9.5602227e-08
9.5599934e-08
9.5597521e-08
9.5595042e-08
9.5592443e-08
9.5589757e-08
9.5586851e-08
9.5583687e-08
9.5580122e-08
4.2955445e-11
8.9729652e-10
1.2542075e-08
4.4328178e-08
7.5106932e-08
9.0516012e-08
9.5570777e-08
9.6704336e-08
9.6704408e-08
9.65547e-08
9.6464809e-08
9.6428157e-08
9.6417927e-08
9.6417485e-08
9.6418105e-08
9.6418936e-08
9.641892e-08
9.6417304e-08
9.6414853e-08
9.6412226e-08
9.6409714e-08
9.6407475e-08
9.6405595e-08
9.6404202e-08
9.6402956e-08
9.6401649e-08
9.6400275e-08
9.6398894e-08
9.6397533e-08
9.63962e-08
9.6394878e-08
9.639357e-08
9.6392262e-08
9.6390971e-08
9.638967e-08
9.6388387e-08
9.6387083e-08
9.6385809e-08
9.6384501e-08
9.6383215e-08
9.6381887e-08
9.6380557e-08
9.63792e-08
9.6377853e-08
9.6376482e-08
9.6375112e-08
9.6373713e-08
9.6372316e-08
9.6370893e-08
9.6369472e-08
9.6368017e-08
9.6366553e-08
9.6365048e-08
9.6363523e-08
9.6361943e-08
9.636033e-08
9.6358649e-08
9.6356937e-08
9.6355166e-08
9.6353378e-08
9.6351542e-08
9.6349694e-08
9.6347795e-08
9.6345874e-08
9.634389e-08
9.6341876e-08
9.6339788e-08
9.6337658e-08
9.6335438e-08
9.6333158e-08
9.6330761e-08
9.6328288e-08
9.6325678e-08
9.6322981e-08
9.6320137e-08
9.6317204e-08
9.6314121e-08
9.6310935e-08
9.6307501e-08
9.6303766e-08
9.6299568e-08
4.9193202e-11
1.164477e-09
1.5479196e-08
5.041721e-08
8.0109484e-08
9.305575e-08
9.6933984e-08
9.7556978e-08
9.7433306e-08
9.7286673e-08
9.7216688e-08
9.7191407e-08
9.7187475e-08
9.7187318e-08
9.7187313e-08
9.7187725e-08
9.718718e-08
9.7184999e-08
9.7182133e-08
9.7179193e-08
9.7176433e-08
9.7173994e-08
9.7171971e-08
9.7170399e-08
9.7168894e-08
9.7167335e-08
9.7165713e-08
9.7164112e-08
9.7162519e-08
9.716097e-08
9.7159422e-08
9.715791e-08
9.7156385e-08
9.7154894e-08
9.715338e-08
9.7151898e-08
9.715038e-08
9.7148909e-08
9.7147386e-08
9.714591e-08
9.7144371e-08
9.7142856e-08
9.7141295e-08
9.7139761e-08
9.7138181e-08
9.713662e-08
9.7135009e-08
9.7133418e-08
9.7131782e-08
9.7130166e-08
9.7128496e-08
9.7126838e-08
9.7125122e-08
9.7123407e-08
9.7121612e-08
9.7119796e-08
9.7117887e-08
9.7115957e-08
9.7113945e-08
9.7111927e-08
9.710984e-08
9.7107753e-08
9.7105594e-08
9.7103426e-08
9.7101175e-08
9.70989e-08
9.7096524e-08
9.7094111e-08
9.7091581e-08
9.7088995e-08
9.7086266e-08
9.708346e-08
9.7080488e-08
9.7077424e-08
9.7074178e-08
9.7070829e-08
9.7067293e-08
9.7063645e-08
9.7059718e-08
9.7055457e-08
9.7050667e-08
5.768407e-11
1.5282331e-09
1.9008258e-08
5.6798551e-08
8.4767963e-08
9.539527e-08
9.8119436e-08
9.8365717e-08
9.8184953e-08
9.8057179e-08
9.8005625e-08
9.7991311e-08
9.7990427e-08
9.7989554e-08
9.7989029e-08
9.7989174e-08
9.7988096e-08
9.7985376e-08
9.7982125e-08
9.7978892e-08
9.7975927e-08
9.7973314e-08
9.7971186e-08
9.7969432e-08
9.7967687e-08
9.7965888e-08
9.7964044e-08
9.7962237e-08
9.7960438e-08
9.7958686e-08
9.7956934e-08
9.7955226e-08
9.7953506e-08
9.7951826e-08
9.795012e-08
9.7948453e-08
9.7946745e-08
9.7945089e-08
9.7943376e-08
9.7941722e-08
9.7939997e-08
9.79383e-08
9.793656e-08
9.7934845e-08
9.7933081e-08
9.7931338e-08
9.7929542e-08
9.7927768e-08
9.7925946e-08
9.7924145e-08
9.792229e-08
9.7920451e-08
9.7918551e-08
9.7916651e-08
9.7914664e-08
9.7912656e-08
9.7910546e-08
9.7908413e-08
9.7906189e-08
9.7903958e-08
9.7901651e-08
9.7899344e-08
9.7896957e-08
9.7894559e-08
9.7892065e-08
9.7889544e-08
9.7886908e-08
9.7884232e-08
9.7881425e-08
9.787856e-08
9.7875534e-08
9.7872424e-08
9.7869127e-08
9.7865729e-08
9.7862121e-08
9.7858392e-08
9.7854441e-08
9.785037e-08
9.7845998e-08
9.7841261e-08
9.783593e-08
6.9244265e-11
2.0333003e-09
2.3204747e-08
6.3359762e-08
8.9034535e-08
9.7405803e-08
9.917427e-08
9.9167172e-08
9.8971232e-08
9.8870036e-08
9.8834411e-08
9.8828996e-08
9.8828471e-08
9.8826712e-08
9.882592e-08
9.8825883e-08
9.8824222e-08
9.8821022e-08
9.881741e-08
9.8813932e-08
9.8810798e-08
9.8808057e-08
9.8805839e-08
9.8803906e-08
9.8801935e-08
9.8799921e-08
9.879788e-08
9.8795887e-08
9.8793903e-08
9.879197e-08
9.8790036e-08
9.8788149e-08
9.8786252e-08
9.87844e-08
9.8782523e-08
9.878069e-08
9.8778814e-08
9.8776993e-08
9.8775113e-08
9.87733e-08
9.8771408e-08
9.8769549e-08
9.8767645e-08
9.8765767e-08
9.876384e-08
9.8761935e-08
9.8759976e-08
9.875804e-08
9.8756053e-08
9.8754089e-08
9.875207e-08
9.8750068e-08
9.8748001e-08
9.8745935e-08
9.8743781e-08
9.8741603e-08
9.8739319e-08
9.8737008e-08
9.87346e-08
9.8732182e-08
9.8729682e-08
9.8727178e-08
9.8724585e-08
9.8721978e-08
9.8719268e-08
9.8716528e-08
9.8713664e-08
9.8710756e-08
9.8707707e-08
9.8704595e-08
9.870131e-08
9.8697931e-08
9.8694348e-08
9.8690651e-08
9.8686722e-08
9.8682655e-08
9.8678336e-08
9.8673885e-08
9.8669125e-08
9.866397e-08
9.8658154e-08
8.4941169e-11
2.7344608e-09
2.8133624e-08
6.9968906e-08
9.2867576e-08
9.9133134e-08
1.001459e-07
9.998313e-08
9.9801719e-08
9.9727409e-08
9.9706546e-08
9.9705662e-08
9.9704244e-08
9.9701747e-08
9.970097e-08
9.9700716e-08
9.969844e-08
9.9694812e-08
9.9690892e-08
9.968722e-08
9.9683963e-08
9.9681142e-08
9.9678846e-08
9.9676734e-08
9.9674561e-08
9.9672356e-08
9.9670147e-08
9.966799e-08
9.966585e-08
9.9663756e-08
9.9661668e-08
9.9659624e-08
9.9657574e-08
9.9655567e-08
9.9653543e-08
9.9651562e-08
9.9649545e-08
9.964758e-08
9.9645558e-08
9.9643604e-08
9.9641571e-08
9.963957e-08
9.9637527e-08
9.9635506e-08
9.9633441e-08
9.9631395e-08
9.96293e-08
9.9627223e-08
9.9625098e-08
9.9622991e-08
9.962083e-08
9.9618683e-08
9.9616475e-08
9.9614268e-08
9.9611975e-08
9.9609655e-08
9.9607227e-08
9.9604765e-08
9.9602203e-08
9.9599624e-08
9.9596956e-08
9.9594279e-08
9.959151e-08
9.9588725e-08
9.9585832e-08
9.9582908e-08
9.9579851e-08
9.9576747e-08
9.9573491e-08
9.9570172e-08
9.9566665e-08
9.9563059e-08
9.9559229e-08
9.9555279e-08
9.9551076e-08
9.9546723e-08
9.9542085e-08
9.9537309e-08
9.9532221e-08
9.9526719e-08
9.952048e-08
1.0626281e-10
3.6716107e-09
3.3854406e-08
7.6480934e-08
9.6181577e-08
1.006237e-07
1.0107122e-07
1.0083275e-07
1.0068294e-07
1.0063218e-07
1.0062364e-07
1.0062345e-07
1.0062088e-07
1.00618e-07
1.0061743e-07
1.0061687e-07
1.0061397e-07
1.0060996e-07
1.0060581e-07
1.0060201e-07
1.0059867e-07
1.0059583e-07
1.0059345e-07
1.0059118e-07
1.0058883e-07
1.0058647e-07
1.0058412e-07
1.0058183e-07
1.0057956e-07
1.0057733e-07
1.0057512e-07
1.0057294e-07
1.0057077e-07
1.0056864e-07
1.0056649e-07
1.0056438e-07
1.0056225e-07
1.0056017e-07
1.0055803e-07
1.0055596e-07
1.0055381e-07
1.0055169e-07
1.0054954e-07
1.005474e-07
1.0054523e-07
1.0054307e-07
1.0054086e-07
1.0053867e-07
1.0053643e-07
1.0053421e-07
1.0053193e-07
1.0052967e-07
1.0052735e-07
1.0052503e-07
1.0052263e-07
1.005202e-07
1.0051766e-07
1.0051508e-07
1.0051239e-07
1.0050968e-07
1.0050687e-07
1.0050406e-07
1.0050115e-07
1.0049823e-07
1.0049519e-07
1.0049212e-07
1.0048891e-07
1.0048565e-07
1.0048223e-07
1.0047874e-07
1.0047506e-07
1.0047127e-07
1.0046725e-07
1.004631e-07
1.0045868e-07
1.0045409e-07
1.004492e-07
1.0044415e-07
1.0043881e-07
1.0043304e-07
1.0042645e-07
1.3568169e-10
4.9500584e-09
4.0446006e-08
8.2744458e-08
9.8542882e-08
1.0193218e-07
1.0198245e-07
1.0172899e-07
1.0161894e-07
1.015884e-07
1.0158662e-07
1.0158563e-07
1.0158211e-07
1.0157925e-07
1.0157896e-07
1.0157797e-07
1.0157448e-07
1.0157014e-07
1.0156582e-07
1.0156198e-07
1.0155862e-07
1.015558e-07
1.0155335e-07
1.0155093e-07
1.0154844e-07
1.0154597e-07
1.0154352e-07
1.0154112e-07
1.0153875e-07
1.0153642e-07
1.0153411e-07
1.0153184e-07
1.0152957e-07
1.0152734e-07
1.015251e-07
1.015229e-07
1.0152068e-07
1.015185e-07
1.0151628e-07
1.0151412e-07
1.0151189e-07
1.0150969e-07
1.0150745e-07
1.0150523e-07
1.0150297e-07
1.0150073e-07
1.0149844e-07
1.0149618e-07
1.0149385e-07
1.0149155e-07
1.0148918e-07
1.0148684e-07
1.0148444e-07
1.0148204e-07
1.0147957e-07
1.0147707e-07
1.0147445e-07
1.0147178e-07
1.01469e-07
1.014662e-07
1.014633e-07
1.0146039e-07
1.0145737e-07
1.0145435e-07
1.0145121e-07
1.0144804e-07
1.0144472e-07
1.0144135e-07
1.0143781e-07
1.0143421e-07
1.014304e-07
1.014265e-07
1.0142233e-07
1.0141805e-07
1.0141346e-07
1.0140873e-07
1.0140364e-07
1.0139841e-07
1.0139287e-07
1.0138694e-07
1.0138008e-07
1.7690868e-10
6.6890065e-09
4.7908925e-08
8.8609747e-08
1.0105308e-07
1.0307596e-07
1.0290009e-07
1.0268572e-07
1.0261274e-07
1.0259892e-07
1.0259846e-07
1.025963e-07
1.0259219e-07
1.0258965e-07
1.0258967e-07
1.0258814e-07
1.0258412e-07
1.0257947e-07
1.0257507e-07
1.0257128e-07
1.0256796e-07
1.025652e-07
1.0256268e-07
1.0256016e-07
1.0255759e-07
1.0255504e-07
1.0255252e-07
1.0255006e-07
1.0254762e-07
1.0254523e-07
1.0254286e-07
1.0254053e-07
1.025382e-07
1.0253591e-07
1.0253362e-07
1.0253136e-07
1.0252908e-07
1.0252685e-07
1.0252458e-07
1.0252236e-07
1.0252008e-07
1.0251784e-07
1.0251554e-07
1.0251328e-07
1.0251097e-07
1.0250869e-07
1.0250635e-07
1.0250404e-07
1.0250167e-07
1.0249932e-07
1.024969e-07
1.0249452e-07
1.0249207e-07
1.0248964e-07
1.0248713e-07
1.024846e-07
1.0248194e-07
1.0247924e-07
1.024764e-07
1.0247356e-07
1.024706e-07
1.0246764e-07
1.0246457e-07
1.0246151e-07
1.0245831e-07
1.0245509e-07
1.0245171e-07
1.0244829e-07
1.0244468e-07
1.0244102e-07
1.0243715e-07
1.0243319e-07
1.0242895e-07
1.024246e-07
1.0241994e-07
1.0241513e-07
1.0240993e-07
1.0240458e-07
1.0239896e-07
1.0239297e-07
1.0238594e-07
2.3595284e-10
9.0547686e-09
5.6173375e-08
9.3955355e-08
1.0309837e-07
1.0414103e-07
1.0387442e-07
1.0371248e-07
1.036684e-07
1.0366435e-07
1.0366336e-07
1.0366026e-07
1.0365589e-07
1.0365387e-07
1.0365423e-07
1.0365211e-07
1.0364758e-07
1.0364266e-07
1.0363827e-07
1.036346e-07
1.0363142e-07
1.0362876e-07
1.0362621e-07
1.0362363e-07
1.0362102e-07
1.0361845e-07
1.0361591e-07
1.0361343e-07
1.0361097e-07
1.0360856e-07
1.0360616e-07
1.0360381e-07
1.0360147e-07
1.0359916e-07
1.0359685e-07
1.0359457e-07
1.0359229e-07
1.0359004e-07
1.0358776e-07
1.0358552e-07
1.0358324e-07
1.0358099e-07
1.0357869e-07
1.0357642e-07
1.035741e-07
1.0357182e-07
1.0356947e-07
1.0356716e-07
1.0356478e-07
1.0356244e-07
1.0356002e-07
1.0355763e-07
1.0355518e-07
1.0355276e-07
1.0355025e-07
1.0354774e-07
1.0354509e-07
1.035424e-07
1.0353957e-07
1.0353673e-07
1.0353377e-07
1.0353082e-07
1.0352775e-07
1.035247e-07
1.035215e-07
1.035183e-07
1.0351491e-07
1.0351151e-07
1.0350789e-07
1.0350426e-07
1.0350038e-07
1.0349645e-07
1.0349222e-07
1.0348789e-07
1.0348323e-07
1.0347844e-07
1.0347323e-07
1.0346787e-07
1.0346226e-07
1.0345635e-07
1.0344926e-07
3.2308628e-10
1.2273871e-08
6.4999449e-08
9.8715112e-08
1.0485747e-07
1.0519708e-07
1.0491956e-07
1.0481094e-07
1.0478939e-07
1.0478872e-07
1.0478662e-07
1.0478297e-07
1.0477862e-07
1.0477727e-07
1.0477797e-07
1.047753e-07
1.0477025e-07
1.047651e-07
1.047608e-07
1.0475735e-07
1.0475443e-07
1.047519e-07
1.0474936e-07
1.0474679e-07
1.047442e-07
1.0474167e-07
1.0473915e-07
1.047367e-07
1.0473427e-07
1.0473189e-07
1.0472952e-07
1.047272e-07
1.0472489e-07
1.0472261e-07
1.0472033e-07
1.0471809e-07
1.0471584e-07
1.0471363e-07
1.0471138e-07
1.0470918e-07
1.0470694e-07
1.0470473e-07
1.0470247e-07
1.0470025e-07
1.0469797e-07
1.0469574e-07
1.0469343e-07
1.0469118e-07
1.0468884e-07
1.0468655e-07
1.0468417e-07
1.0468185e-07
1.0467943e-07
1.0467708e-07
1.0467462e-07
1.046722e-07
1.0466961e-07
1.04667e-07
1.0466422e-07
1.0466146e-07
1.0465855e-07
1.0465569e-07
1.0465267e-07
1.0464971e-07
1.0464656e-07
1.0464345e-07
1.0464012e-07
1.0463682e-07
1.0463327e-07
1.0462974e-07
1.0462595e-07
1.0462214e-07
1.0461801e-07
1.046138e-07
1.0460924e-07
1.0460459e-07
1.0459948e-07
1.0459422e-07
1.0458875e-07
1.0458306e-07
1.0457606e-07
4.5650662e-10
1.665845e-08
7.4229073e-08
1.0283872e-07
1.0637869e-07
1.0628334e-07
1.0604897e-07
1.0598544e-07
1.059787e-07
1.0597753e-07
1.059745e-07
1.059707e-07
1.0596656e-07
1.0596598e-07
1.0596703e-07
1.0596389e-07
1.0595832e-07
1.0595301e-07
1.0594893e-07
1.059458e-07
1.0594322e-07
1.0594086e-07
1.0593841e-07
1.0593592e-07
1.0593343e-07
1.0593098e-07
1.0592856e-07
1.059262e-07
1.0592385e-07
1.0592156e-07
1.0591929e-07
1.0591706e-07
1.0591483e-07
1.0591264e-07
1.0591045e-07
1.059083e-07
1.0590614e-07
1.0590402e-07
1.0590187e-07
1.0589976e-07
1.0589762e-07
1.0589551e-07
1.0589335e-07
1.0589122e-07
1.0588905e-07
1.0588692e-07
1.0588472e-07
1.0588257e-07
1.0588034e-07
1.0587817e-07
1.058759e-07
1.0587369e-07
1.0587138e-07
1.0586915e-07
1.0586682e-07
1.0586453e-07
1.0586209e-07
1.0585962e-07
1.0585696e-07
1.0585435e-07
1.0585158e-07
1.0584887e-07
1.0584599e-07
1.0584319e-07
1.0584019e-07
1.0583724e-07
1.0583407e-07
1.0583094e-07
1.0582757e-07
1.0582423e-07
1.0582064e-07
1.0581704e-07
1.0581313e-07
1.0580914e-07
1.0580481e-07
1.0580041e-07
1.0579558e-07
1.0579054e-07
1.0578536e-07
1.0578005e-07
1.0577333e-07
6.7113088e-10
2.2636366e-08
8.4113631e-08
1.0535407e-07
1.0773142e-07
1.074371e-07
1.0727084e-07
1.0724075e-07
1.0723965e-07
1.0723748e-07
1.0723412e-07
1.0723052e-07
1.0722675e-07
1.0722698e-07
1.0722841e-07
1.072249e-07
1.0721883e-07
1.0721354e-07
1.0720987e-07
1.072072e-07
1.0720499e-07
1.0720284e-07
1.0720055e-07
1.0719823e-07
1.0719589e-07
1.0719361e-07
1.0719135e-07
1.0718915e-07
1.0718697e-07
1.0718484e-07
1.0718272e-07
1.0718065e-07
1.0717858e-07
1.0717656e-07
1.0717452e-07
1.0717253e-07
1.0717053e-07
1.0716856e-07
1.0716658e-07
1.0716463e-07
1.0716265e-07
1.071607e-07
1.0715872e-07
1.0715676e-07
1.0715477e-07
1.071528e-07
1.0715079e-07
1.0714881e-07
1.0714677e-07
1.0714476e-07
1.0714269e-07
1.0714066e-07
1.0713856e-07
1.071365e-07
1.0713439e-07
1.071323e-07
1.071301e-07
1.0712784e-07
1.0712541e-07
1.0712302e-07
1.0712048e-07
1.0711802e-07
1.0711537e-07
1.0711282e-07
1.0711006e-07
1.0710738e-07
1.0710447e-07
1.0710161e-07
1.0709854e-07
1.070955e-07
1.0709224e-07
1.0708897e-07
1.0708542e-07
1.0708177e-07
1.0707783e-07
1.0707382e-07
1.0706944e-07
1.0706481e-07
1.0706007e-07
1.0705534e-07
1.0704913e-07
1.0732509e-09
3.0780407e-08
9.3240803e-08
1.0778219e-07
1.0894098e-07
1.0867276e-07
1.0858933e-07
1.0858075e-07
1.0857959e-07
1.0857669e-07
1.0857348e-07
1.0857032e-07
1.085671e-07
1.085682e-07
1.0856999e-07
1.0856616e-07
1.0855965e-07
1.0855473e-07
1.0855175e-07
1.0854968e-07
1.0854784e-07
1.0854591e-07
1.0854385e-07
1.0854177e-07
1.0853969e-07
1.0853767e-07
1.0853566e-07
1.0853371e-07
1.0853177e-07
1.0852989e-07
1.0852801e-07
1.0852619e-07
1.0852436e-07
1.0852257e-07
1.0852078e-07
1.0851902e-07
1.0851726e-07
1.0851553e-07
1.085138e-07
1.0851208e-07
1.0851036e-07
1.0850865e-07
1.0850692e-07
1.0850521e-07
1.0850348e-07
1.0850176e-07
1.0850002e-07
1.0849829e-07
1.0849654e-07
1.0849479e-07
1.0849301e-07
1.0849123e-07
1.0848943e-07
1.0848765e-07
1.0848584e-07
1.0848404e-07
1.0848215e-07
1.0848021e-07
1.0847815e-07
1.0847604e-07
1.0847385e-07
1.0847172e-07
1.0846943e-07
1.0846723e-07
1.0846485e-07
1.0846254e-07
1.0846005e-07
1.0845759e-07
1.0845496e-07
1.0845233e-07
1.0844955e-07
1.0844676e-07
1.0844371e-07
1.0844057e-07
1.0843718e-07
1.0843374e-07
1.0843001e-07
1.0842601e-07
1.0842191e-07
1.0841798e-07
1.0841256e-07
2.1795401e-09
4.1777435e-08
1.0161543e-07
1.0998033e-07
1.1020791e-07
1.1003891e-07
1.1001006e-07
1.1000865e-07
1.1000674e-07
1.1000389e-07
1.1000125e-07
1.0999875e-07
1.0999628e-07
1.0999835e-07
1.1000055e-07
1.0999602e-07
1.0998934e-07
1.0998546e-07
1.0998349e-07
1.0998205e-07
1.0998054e-07
1.0997889e-07
1.0997715e-07
1.0997543e-07
1.0997372e-07
1.0997206e-07
1.0997041e-07
1.0996882e-07
1.0996723e-07
1.099657e-07
1.0996417e-07
1.0996268e-07
1.0996119e-07
1.0995974e-07
1.0995829e-07
1.0995687e-07
1.0995545e-07
1.0995405e-07
1.0995265e-07
1.0995127e-07
1.099499e-07
1.0994852e-07
1.0994715e-07
1.0994578e-07
1.0994442e-07
1.0994305e-07
1.0994168e-07
1.0994031e-07
1.0993892e-07
1.0993755e-07
1.0993614e-07
1.0993475e-07
1.0993334e-07
1.0993195e-07
1.0993054e-07
1.0992916e-07
1.099277e-07
1.099262e-07
1.0992458e-07
1.0992296e-07
1.0992117e-07
1.0991951e-07
1.0991768e-07
1.0991602e-07
1.0991413e-07
1.0991237e-07
1.0991041e-07
1.0990854e-07
1.0990648e-07
1.0990448e-07
1.0990228e-07
1.0990017e-07
1.0989777e-07
1.0989539e-07
1.098927e-07
1.0989009e-07
1.0988717e-07
1.0988413e-07
1.0988085e-07
1.0987799e-07
1.098737e-07
4.470083e-09
5.7994185e-08
1.0878912e-07
1.1175604e-07
1.1160204e-07
1.115355e-07
1.1153188e-07
1.1153099e-07
1.1152911e-07
1.1152672e-07
1.1152497e-07
1.1152321e-07
1.1152169e-07
1.1152462e-07
1.115273e-07
1.1152149e-07
1.1151534e-07
1.1151344e-07
1.1151269e-07
1.1151181e-07
1.1151066e-07
1.1150944e-07
1.1150817e-07
1.1150696e-07
1.1150575e-07
1.115046e-07
1.1150343e-07
1.1150234e-07
1.1150121e-07
1.1150017e-07
1.1149909e-07
1.1149808e-07
1.1149703e-07
1.1149605e-07
1.1149504e-07
1.1149409e-07
1.1149311e-07
1.1149218e-07
1.1149121e-07
1.1149031e-07
1.1148936e-07
1.1148847e-07
1.1148754e-07
1.1148666e-07
1.1148574e-07
1.1148486e-07
1.1148395e-07
1.1148307e-07
1.1148216e-07
1.1148129e-07
1.1148037e-07
1.1147949e-07
1.1147857e-07
1.1147771e-07
1.1147681e-07
1.1147599e-07
1.1147509e-07
1.1147419e-07
1.1147317e-07
1.1147214e-07
1.1147093e-07
1.1146983e-07
1.1146866e-07
1.1146765e-07
1.1146643e-07
1.1146533e-07
1.1146407e-07
1.1146293e-07
1.1146163e-07
1.114604e-07
1.11459e-07
1.1145771e-07
1.1145623e-07
1.1145478e-07
1.1145307e-07
1.1145148e-07
1.1144967e-07
1.1144783e-07
1.1144567e-07
1.1144412e-07
1.1144135e-07
8.4983175e-09
8.1636392e-08
1.1348444e-07
1.1331701e-07
1.131504e-07
1.1314118e-07
1.1314223e-07
1.1314132e-07
1.1314055e-07
1.1313879e-07
1.1313837e-07
1.1313732e-07
1.1313703e-07
1.1313936e-07
1.1314231e-07
1.1313665e-07
1.1313233e-07
1.1313267e-07
1.1313305e-07
1.1313268e-07
1.1313213e-07
1.1313154e-07
1.1313098e-07
1.1313043e-07
1.1312991e-07
1.1312939e-07
1.1312888e-07
1.131284e-07
1.1312792e-07
1.1312747e-07
1.1312702e-07
1.1312659e-07
1.1312616e-07
1.1312576e-07
1.1312534e-07
1.1312498e-07
1.1312457e-07
1.1312423e-07
1.1312384e-07
1.1312352e-07
1.1312314e-07
1.1312284e-07
1.1312248e-07
1.1312219e-07
1.1312184e-07
1.1312157e-07
1.1312124e-07
1.1312098e-07
1.1312065e-07
1.1312041e-07
1.1312008e-07
1.1311986e-07
1.1311953e-07
1.1311932e-07
1.1311902e-07
1.1311887e-07
1.1311861e-07
1.1311849e-07
1.131182e-07
1.1311804e-07
1.1311763e-07
1.131174e-07
1.1311691e-07
1.1311667e-07
1.1311612e-07
1.1311586e-07
1.1311538e-07
1.131152e-07
1.1311473e-07
1.1311452e-07
1.1311403e-07
1.1311385e-07
1.1311339e-07
1.1311316e-07
1.1311258e-07
1.131123e-07
1.1311173e-07
1.1311135e-07
1.1311059e-07
1.1311051e-07
1.1310963e-07
8.4261267e-08
8.4261294e-08
8.4262833e-08
8.4262624e-08
8.4263001e-08
8.426314e-08
8.4263375e-08
8.4263583e-08
8.4263806e-08
8.426403e-08
8.4264263e-08
8.4264503e-08
8.4264752e-08
8.4265006e-08
8.4265267e-08
8.4265529e-08
8.4265796e-08
8.4266057e-08
8.4266322e-08
8.4266578e-08
8.4266835e-08
8.4267082e-08
8.426733e-08
8.4267569e-08
8.4267808e-08
8.4268043e-08
8.4268281e-08
8.4268515e-08
8.4268745e-08
8.4268963e-08
8.4269166e-08
8.4269348e-08
8.4269508e-08
8.4269647e-08
8.4269767e-08
8.4269873e-08
8.4269961e-08
8.4270034e-08
8.4270087e-08
8.427012e-08
8.427013e-08
8.4270119e-08
8.4270086e-08
8.4270034e-08
8.4269964e-08
8.4269881e-08
8.4269783e-08
8.4269673e-08
8.4269547e-08
8.4269405e-08
8.4269246e-08
8.426908e-08
8.4268923e-08
8.4268801e-08
8.4268726e-08
8.4268712e-08
8.4268785e-08
8.4269096e-08
8.4270084e-08
8.4272643e-08
8.4277947e-08
8.4286222e-08
8.4293075e-08
8.4281242e-08
8.4204953e-08
8.3964253e-08
8.3368278e-08
8.2091531e-08
7.9637513e-08
7.5343634e-08
6.8489804e-08
5.8591455e-08
4.5891903e-08
3.1807907e-08
1.874457e-08
8.9546985e-09
3.2523796e-09
8.3168233e-10
1.9013336e-10
1.0351822e-10
1.3268281e-10
8.4479387e-08
8.447937e-08
8.4480455e-08
8.4480382e-08
8.4480693e-08
8.4480852e-08
8.4481081e-08
8.448129e-08
8.4481514e-08
8.4481739e-08
8.4481975e-08
8.4482215e-08
8.4482466e-08
8.448272e-08
8.4482983e-08
8.4483244e-08
8.4483511e-08
8.4483772e-08
8.4484037e-08
8.4484293e-08
8.4484551e-08
8.44848e-08
8.4485049e-08
8.4485289e-08
8.4485532e-08
8.4485767e-08
8.4486009e-08
8.4486243e-08
8.4486478e-08
8.4486695e-08
8.4486901e-08
8.448708e-08
8.4487242e-08
8.4487377e-08
8.4487499e-08
8.44876e-08
8.448769e-08
8.4487759e-08
8.4487812e-08
8.4487842e-08
8.4487851e-08
8.4487837e-08
8.4487803e-08
8.4487748e-08
8.4487677e-08
8.4487592e-08
8.4487493e-08
8.4487381e-08
8.4487255e-08
8.4487112e-08
8.4486953e-08
8.4486788e-08
8.4486633e-08
8.4486511e-08
8.4486439e-08
8.4486428e-08
8.4486504e-08
8.4486811e-08
8.4487763e-08
8.4490212e-08
8.4495312e-08
8.4503447e-08
8.4510956e-08
8.4502634e-08
8.4437333e-08
8.4223803e-08
8.3685305e-08
8.2515675e-08
8.0239102e-08
7.6204329e-08
6.9673555e-08
6.0091347e-08
4.7571983e-08
3.3400963e-08
1.9966995e-08
9.6775784e-09
3.5580411e-09
9.0989726e-10
1.9800783e-10
9.4399078e-11
1.1975389e-10
8.4709078e-08
8.4708982e-08
8.4709953e-08
8.4709904e-08
8.4710201e-08
8.4710368e-08
8.4710596e-08
8.4710805e-08
8.4711032e-08
8.4711256e-08
8.4711496e-08
8.4711737e-08
8.4711992e-08
8.4712247e-08
8.4712513e-08
8.4712774e-08
8.4713045e-08
8.4713306e-08
8.4713574e-08
8.4713832e-08
8.4714094e-08
8.4714344e-08
8.4714598e-08
8.4714839e-08
8.4715086e-08
8.4715324e-08
8.4715569e-08
8.4715805e-08
8.4716042e-08
8.4716261e-08
8.4716468e-08
8.4716647e-08
8.4716807e-08
8.4716942e-08
8.4717061e-08
8.4717162e-08
8.471725e-08
8.471732e-08
8.4717372e-08
8.4717402e-08
8.4717412e-08
8.4717399e-08
8.4717365e-08
8.4717312e-08
8.4717242e-08
8.4717157e-08
8.471706e-08
8.471695e-08
8.4716827e-08
8.4716686e-08
8.4716531e-08
8.4716367e-08
8.4716212e-08
8.4716088e-08
8.4716015e-08
8.4715997e-08
8.4716045e-08
8.4716244e-08
8.4716917e-08
8.4718822e-08
8.4723187e-08
8.473102e-08
8.4740602e-08
8.4741224e-08
8.4700502e-08
8.4542035e-08
8.4111111e-08
8.3129438e-08
8.1148395e-08
7.7527657e-08
7.1496569e-08
6.2390128e-08
5.013055e-08
3.581052e-08
2.1798922e-08
1.0746464e-08
4.0054055e-09
1.0256317e-09
2.1074598e-10
8.7533886e-11
1.0927144e-10
8.4951321e-08
8.4951222e-08
8.4952062e-08
8.4952047e-08
8.4952326e-08
8.49525e-08
8.4952725e-08
8.4952934e-08
8.4953162e-08
8.4953386e-08
8.4953628e-08
8.4953869e-08
8.4954127e-08
8.4954382e-08
8.495465e-08
8.4954911e-08
8.4955183e-08
8.4955444e-08
8.4955714e-08
8.4955972e-08
8.4956237e-08
8.4956488e-08
8.4956745e-08
8.4956989e-08
8.495724e-08
8.495748e-08
8.4957728e-08
8.4957966e-08
8.4958204e-08
8.4958423e-08
8.4958628e-08
8.4958806e-08
8.4958964e-08
8.4959097e-08
8.4959214e-08
8.4959313e-08
8.49594e-08
8.495947e-08
8.4959522e-08
8.4959552e-08
8.4959561e-08
8.4959549e-08
8.4959515e-08
8.4959463e-08
8.4959393e-08
8.495931e-08
8.4959213e-08
8.4959105e-08
8.4958983e-08
8.4958845e-08
8.4958692e-08
8.4958529e-08
8.4958373e-08
8.4958248e-08
8.4958173e-08
8.4958156e-08
8.4958195e-08
8.4958341e-08
8.4958841e-08
8.4960347e-08
8.4964042e-08
8.4971222e-08
8.4981378e-08
8.4987009e-08
8.4962539e-08
8.4843974e-08
8.4496259e-08
8.3667903e-08
8.1939666e-08
7.8690179e-08
7.3131688e-08
6.4510426e-08
5.2569341e-08
3.8191452e-08
2.3676821e-08
1.1880738e-08
4.4952152e-09
1.1567717e-09
2.2541922e-10
8.1494337e-11
9.9468128e-11
8.5206972e-08
8.5206878e-08
8.5207618e-08
8.5207633e-08
8.5207897e-08
8.5208076e-08
8.52083e-08
8.520851e-08
8.5208738e-08
8.5208962e-08
8.5209206e-08
8.5209448e-08
8.5209708e-08
8.5209962e-08
8.5210232e-08
8.5210492e-08
8.5210764e-08
8.5211025e-08
8.5211297e-08
8.5211554e-08
8.5211822e-08
8.5212075e-08
8.5212336e-08
8.5212582e-08
8.5212836e-08
8.5213079e-08
8.5213329e-08
8.5213568e-08
8.5213805e-08
8.5214024e-08
8.5214226e-08
8.5214402e-08
8.5214557e-08
8.5214688e-08
8.5214802e-08
8.52149e-08
8.5214986e-08
8.5215056e-08
8.5215108e-08
8.5215139e-08
8.5215148e-08
8.5215136e-08
8.5215103e-08
8.5215051e-08
8.5214983e-08
8.52149e-08
8.5214804e-08
8.5214697e-08
8.5214577e-08
8.5214442e-08
8.5214291e-08
8.521413e-08
8.5213973e-08
8.5213845e-08
8.5213769e-08
8.5213752e-08
8.5213785e-08
8.5213888e-08
8.5214232e-08
8.5215357e-08
8.5218368e-08
8.5224761e-08
8.5235044e-08
8.524459e-08
8.523416e-08
8.5151656e-08
8.4881476e-08
8.4199647e-08
8.2718955e-08
7.9842702e-08
7.4775131e-08
6.66829e-08
5.5128212e-08