/*--------------------------------*- C++ -*----------------------------------*\
| =========                 |                                                 |
| \\      /  F ield         | OpenFOAM: The Open Source CFD Toolbox           |
|  \\    /   O peration     | Version:  v2006                                 |
|   \\  /    A nd           | Website:  www.openfoam.com                      |
|    \\/     M anipulation  |                                                 |
\*---------------------------------------------------------------------------*/
FoamFile
{
    version     2.0;
    format      ascii;
    class       volVectorField;
    location    "10000";
    object      C;
}
// * * * * * * * * * * * * * * * * * * * * * * * * * * * * * * * * * * * * * //

dimensions      [0 1 0 0 0 0 0];


internalField   nonuniform List<vector> 
102907
(
(-4.0717662 -0.11091727 0.5)
(-4.0716219 -0.10879362 0.5)
(-4.0714913 -0.1067511 0.5)
(-4.0713723 -0.10478326 0.5)
(-4.0712633 -0.10288432 0.5)
(-4.0711629 -0.10104911 0.5)
(-4.0710698 -0.099272933 0.5)
(-4.0709833 -0.097551515 0.5)
(-4.0709024 -0.095880975 0.5)
(-4.0708266 -0.094257757 0.5)
(-4.0707552 -0.092678595 0.5)
(-4.0706879 -0.091140482 0.5)
(-4.0706241 -0.089640645 0.5)
(-4.0705636 -0.08817651 0.5)
(-4.0705059 -0.086745691 0.5)
(-4.0704509 -0.085345971 0.5)
(-4.0703982 -0.083975276 0.5)
(-4.0703478 -0.082631668 0.5)
(-4.0702993 -0.081313331 0.5)
(-4.0702527 -0.080018558 0.5)
(-4.0702077 -0.078745741 0.5)
(-4.0701642 -0.077493363 0.5)
(-4.0701222 -0.076259988 0.5)
(-4.0700815 -0.075044253 0.5)
(-4.0700419 -0.073844863 0.5)
(-4.0700035 -0.072660585 0.5)
(-4.0699661 -0.071490238 0.5)
(-4.0699296 -0.070332694 0.5)
(-4.069894 -0.069186867 0.5)
(-4.0698592 -0.068051715 0.5)
(-4.0698252 -0.066926228 0.5)
(-4.0697918 -0.065809431 0.5)
(-4.0697591 -0.064700379 0.5)
(-4.069727 -0.063598148 0.5)
(-4.0696955 -0.06250184 0.5)
(-4.0696644 -0.061410575 0.5)
(-4.0696338 -0.060323488 0.5)
(-4.0696036 -0.059239728 0.5)
(-4.0695738 -0.058158454 0.5)
(-4.0695443 -0.057078833 0.5)
(-4.0695152 -0.056000038 0.5)
(-4.0694864 -0.054921242 0.5)
(-4.0694578 -0.053841621 0.5)
(-4.0694294 -0.052760348 0.5)
(-4.0694012 -0.051676588 0.5)
(-4.0693733 -0.050589501 0.5)
(-4.0693454 -0.049498237 0.5)
(-4.0693177 -0.04840193 0.5)
(-4.06929 -0.0472997 0.5)
(-4.0692625 -0.046190649 0.5)
(-4.0692349 -0.045073853 0.5)
(-4.0692074 -0.043948368 0.5)
(-4.0691799 -0.042813217 0.5)
(-4.0691524 -0.041667392 0.5)
(-4.0691248 -0.040509849 0.5)
(-4.0690971 -0.039339505 0.5)
(-4.0690694 -0.038155229 0.5)
(-4.0690415 -0.036955842 0.5)
(-4.0690134 -0.03574011 0.5)
(-4.0689852 -0.034506738 0.5)
(-4.0689568 -0.033254364 0.5)
(-4.0689282 -0.031981551 0.5)
(-4.0688994 -0.030686783 0.5)
(-4.0688703 -0.029368451 0.5)
(-4.0688409 -0.028024849 0.5)
(-4.0688112 -0.02665416 0.5)
(-4.0687813 -0.025254448 0.5)
(-4.0687509 -0.023823636 0.5)
(-4.0687202 -0.022359511 0.5)
(-4.0686892 -0.020859685 0.5)
(-4.0686578 -0.019321584 0.5)
(-4.068626 -0.017742435 0.5)
(-4.0685939 -0.016119233 0.5)
(-4.0685614 -0.014448711 0.5)
(-4.0685286 -0.012727314 0.5)
(-4.0684956 -0.010951155 0.5)
(-4.0684624 -0.0091159728 0.5)
(-4.0684292 -0.0072170727 0.5)
(-4.0683961 -0.0052492654 0.5)
(-4.0683634 -0.0032067843 0.5)
(-4.0683314 -0.0010831871 0.5)
(-4.2145265 -0.1108824 0.5)
(-4.2142201 -0.10869546 0.5)
(-4.2139386 -0.10660132 0.5)
(-4.2136786 -0.10459155 0.5)
(-4.213437 -0.10265878 0.5)
(-4.2132116 -0.10079654 0.5)
(-4.2130004 -0.098999081 0.5)
(-4.2128017 -0.097261266 0.5)
(-4.2126141 -0.095578496 0.5)
(-4.2124365 -0.093946619 0.5)
(-4.2122677 -0.09236187 0.5)
(-4.2121069 -0.090820822 0.5)
(-4.2119534 -0.089320345 0.5)
(-4.2118063 -0.087857564 0.5)
(-4.2116652 -0.086429833 0.5)
(-4.2115295 -0.085034714 0.5)
(-4.2113986 -0.083669944 0.5)
(-4.2112723 -0.08233342 0.5)
(-4.2111501 -0.081023183 0.5)
(-4.2110316 -0.079737404 0.5)
(-4.2109166 -0.078474368 0.5)
(-4.2108048 -0.077232462 0.5)
(-4.2106959 -0.076010168 0.5)
(-4.2105897 -0.074806051 0.5)
(-4.2104859 -0.073618755 0.5)
(-4.2103844 -0.072446986 0.5)
(-4.210285 -0.071289518 0.5)
(-4.2101875 -0.070145176 0.5)
(-4.2100918 -0.069012836 0.5)
(-4.2099977 -0.067891419 0.5)
(-4.209905 -0.066779887 0.5)
(-4.2098137 -0.065677234 0.5)
(-4.2097236 -0.064582489 0.5)
(-4.2096345 -0.063494707 0.5)
(-4.2095465 -0.062412966 0.5)
(-4.2094593 -0.061336367 0.5)
(-4.2093729 -0.060264027 0.5)
(-4.2092872 -0.059195077 0.5)
(-4.209202 -0.05812866 0.5)
(-4.2091173 -0.057063927 0.5)
(-4.209033 -0.056000034 0.5)
(-4.208949 -0.054936141 0.5)
(-4.2088652 -0.053871408 0.5)
(-4.2087815 -0.052804991 0.5)
(-4.2086978 -0.051736041 0.5)
(-4.2086141 -0.050663702 0.5)
(-4.2085303 -0.049587103 0.5)
(-4.2084462 -0.048505364 0.5)
(-4.2083618 -0.047417582 0.5)
(-4.208277 -0.046322838 0.5)
(-4.2081916 -0.045220186 0.5)
(-4.2081057 -0.044108655 0.5)
(-4.2080191 -0.04298724 0.5)
(-4.2079316 -0.041854902 0.5)
(-4.2078432 -0.040710561 0.5)
(-4.2077539 -0.039553095 0.5)
(-4.2076633 -0.038381328 0.5)
(-4.2075715 -0.037194034 0.5)
(-4.2074783 -0.035989921 0.5)
(-4.2073836 -0.034767629 0.5)
(-4.2072871 -0.033525727 0.5)
(-4.2071888 -0.032262694 0.5)
(-4.2070885 -0.030976919 0.5)
(-4.206986 -0.029666687 0.5)
(-4.2068811 -0.028330168 0.5)
(-4.2067735 -0.026965404 0.5)
(-4.2066631 -0.025570292 0.5)
(-4.2065496 -0.024142569 0.5)
(-4.2064326 -0.022679795 0.5)
(-4.2063119 -0.021179328 0.5)
(-4.2061871 -0.019638291 0.5)
(-4.2060579 -0.018053554 0.5)
(-4.2059236 -0.016421691 0.5)
(-4.205784 -0.014738937 0.5)
(-4.2056383 -0.01300114 0.5)
(-4.205486 -0.011203699 0.5)
(-4.2053263 -0.0093414833 0.5)
(-4.2051582 -0.0074087482 0.5)
(-4.2049809 -0.0053990122 0.5)
(-4.2047929 -0.0033049117 0.5)
(-4.204593 -0.0011180107 0.5)
(-4.3572962 -0.11084745 0.5)
(-4.3568444 -0.10859705 0.5)
(-4.3564275 -0.10645117 0.5)
(-4.3560407 -0.10439937 0.5)
(-4.3556802 -0.10243269 0.5)
(-4.3553427 -0.10054336 0.5)
(-4.3550254 -0.098724561 0.5)
(-4.354726 -0.096970309 0.5)
(-4.3544426 -0.095275279 0.5)
(-4.3541736 -0.093634722 0.5)
(-4.3539173 -0.092044373 0.5)
(-4.3536727 -0.090500382 0.5)
(-4.3534385 -0.088999264 0.5)
(-4.3532138 -0.087537839 0.5)
(-4.3529977 -0.086113203 0.5)
(-4.3527895 -0.084722698 0.5)
(-4.3525884 -0.083363867 0.5)
(-4.352394 -0.082034444 0.5)
(-4.3522055 -0.080732328 0.5)
(-4.3520225 -0.079455565 0.5)
(-4.3518446 -0.078202332 0.5)
(-4.3516714 -0.076970924 0.5)
(-4.3515024 -0.075759738 0.5)
(-4.3513374 -0.074567269 0.5)
(-4.3511759 -0.073392094 0.5)
(-4.3510178 -0.072232866 0.5)
(-4.3508627 -0.071088308 0.5)
(-4.3507104 -0.0699572 0.5)
(-4.3505607 -0.06883838 0.5)
(-4.3504132 -0.067730733 0.5)
(-4.3502679 -0.066633189 0.5)
(-4.3501245 -0.065544715 0.5)
(-4.3499828 -0.064464312 0.5)
(-4.3498427 -0.063391013 0.5)
(-4.3497039 -0.062323875 0.5)
(-4.3495663 -0.061261979 0.5)
(-4.3494298 -0.060204421 0.5)
(-4.3492942 -0.059150317 0.5)
(-4.3491593 -0.058098793 0.5)
(-4.349025 -0.057048984 0.5)
(-4.3488911 -0.05600003 0.5)
(-4.3487576 -0.054951077 0.5)
(-4.3486242 -0.053901268 0.5)
(-4.3484909 -0.052849744 0.5)
(-4.3483574 -0.05179564 0.5)
(-4.3482237 -0.050738083 0.5)
(-4.3480895 -0.049676187 0.5)
(-4.3479548 -0.04860905 0.5)
(-4.3478195 -0.047535751 0.5)
(-4.3476832 -0.04645535 0.5)
(-4.347546 -0.045366876 0.5)
(-4.3474076 -0.044269333 0.5)
(-4.3472679 -0.043161688 0.5)
(-4.3471267 -0.042042869 0.5)
(-4.3469838 -0.040911763 0.5)
(-4.346839 -0.039767206 0.5)
(-4.3466921 -0.03860798 0.5)
(-4.3465429 -0.037432807 0.5)
(-4.3463912 -0.036240341 0.5)
(-4.3462367 -0.035029158 0.5)
(-4.3460792 -0.033797752 0.5)
(-4.3459184 -0.032544522 0.5)
(-4.3457539 -0.031267763 0.5)
(-4.3455855 -0.029965651 0.5)
(-4.3454127 -0.028636233 0.5)
(-4.3452353 -0.027277407 0.5)
(-4.3450527 -0.025886908 0.5)
(-4.3448644 -0.024462279 0.5)
(-4.34467 -0.023000861 0.5)
(-4.3444688 -0.021499752 0.5)
(-4.3442602 -0.01995577 0.5)
(-4.3440434 -0.018365432 0.5)
(-4.3438175 -0.016724887 0.5)
(-4.3435816 -0.015029872 0.5)
(-4.3433345 -0.013275635 0.5)
(-4.343075 -0.011456858 0.5)
(-4.3428016 -0.0095675441 0.5)
(-4.3425124 -0.0076008913 0.5)
(-4.3422054 -0.0055491243 0.5)
(-4.3418781 -0.0034032784 0.5)
(-4.3415273 -0.0011529188 0.5)
(-4.5000753 -0.1108124 0.5)
(-4.4994948 -0.1084984 0.5)
(-4.498958 -0.10630065 0.5)
(-4.4984592 -0.10420672 0.5)
(-4.4979933 -0.10220605 0.5)
(-4.4975565 -0.10028955 0.5)
(-4.4971453 -0.09844937 0.5)
(-4.4967568 -0.09667864 0.5)
(-4.4963886 -0.09497132 0.5)
(-4.4960386 -0.093322062 0.5)
(-4.4957049 -0.091726099 0.5)
(-4.4953859 -0.090179158 0.5)
(-4.4950803 -0.088677397 0.5)
(-4.4947868 -0.087217332 0.5)
(-4.4945043 -0.0857958 0.5)
(-4.4942319 -0.084409918 0.5)
(-4.4939686 -0.083057041 0.5)
(-4.4937137 -0.081734737 0.5)
(-4.4934665 -0.080440761 0.5)
(-4.4932264 -0.079173037 0.5)
(-4.4929928 -0.077929632 0.5)
(-4.4927651 -0.076708746 0.5)
(-4.4925429 -0.075508696 0.5)
(-4.4923258 -0.074327902 0.5)
(-4.4921132 -0.073164879 0.5)
(-4.4919049 -0.072018223 0.5)
(-4.4917005 -0.070886605 0.5)
(-4.4914996 -0.069768764 0.5)
(-4.491302 -0.068663497 0.5)
(-4.4911073 -0.067569654 0.5)
(-4.4909153 -0.066486132 0.5)
(-4.4907258 -0.065411871 0.5)
(-4.4905384 -0.064345846 0.5)
(-4.4903529 -0.063287066 0.5)
(-4.4901692 -0.062234567 0.5)
(-4.489987 -0.061187408 0.5)
(-4.4898061 -0.060144669 0.5)
(-4.4896263 -0.059105448 0.5)
(-4.4894473 -0.058068853 0.5)
(-4.4892691 -0.057034004 0.5)
(-4.4890913 -0.056000027 0.5)
(-4.4889139 -0.054966049 0.5)
(-4.4887366 -0.0539312 0.5)
(-4.4885593 -0.052894606 0.5)
(-4.4883817 -0.051855385 0.5)
(-4.4882036 -0.050812647 0.5)
(-4.488025 -0.049765488 0.5)
(-4.4878455 -0.048712989 0.5)
(-4.487665 -0.04765421 0.5)
(-4.4874832 -0.046588186 0.5)
(-4.4873001 -0.045513925 0.5)
(-4.4871152 -0.044430405 0.5)
(-4.4869285 -0.043336562 0.5)
(-4.4867397 -0.042231296 0.5)
(-4.4865485 -0.041113456 0.5)
(-4.4863546 -0.039981841 0.5)
(-4.4861578 -0.038835186 0.5)
(-4.4859579 -0.037672165 0.5)
(-4.4857544 -0.036491373 0.5)
(-4.485547 -0.035291326 0.5)
(-4.4853354 -0.034070442 0.5)
(-4.4851192 -0.03282704 0.5)
(-4.4848979 -0.031559319 0.5)
(-4.4846712 -0.030265347 0.5)
(-4.4844384 -0.028943046 0.5)
(-4.484199 -0.027590174 0.5)
(-4.4839525 -0.026204298 0.5)
(-4.4836981 -0.024782771 0.5)
(-4.4834351 -0.023322713 0.5)
(-4.4831626 -0.021820959 0.5)
(-4.4828797 -0.020274027 0.5)
(-4.4825853 -0.018678073 0.5)
(-4.4822782 -0.017028826 0.5)
(-4.481957 -0.015321518 0.5)
(-4.4816201 -0.013550802 0.5)
(-4.4812657 -0.011710637 0.5)
(-4.4808915 -0.0097941579 0.5)
(-4.4804949 -0.0077935045 0.5)
(-4.480073 -0.0056996035 0.5)
(-4.4796221 -0.0035018855 0.5)
(-4.4791376 -0.0011879119 0.5)
(-4.6428638 -0.11077727 0.5)
(-4.6421714 -0.1083995 0.5)
(-4.6415304 -0.10614976 0.5)
(-4.6409341 -0.1040136 0.5)
(-4.6403767 -0.10197885 0.5)
(-4.6398535 -0.10003512 0.5)
(-4.6393606 -0.098173503 0.5)
(-4.6388946 -0.096386255 0.5)
(-4.6384526 -0.094666615 0.5)
(-4.6380321 -0.093008635 0.5)
(-4.637631 -0.091407044 0.5)
(-4.6372474 -0.089857146 0.5)
(-4.6368796 -0.088354741 0.5)
(-4.6365262 -0.086896039 0.5)
(-4.6361859 -0.085477617 0.5)
(-4.6358575 -0.084096372 0.5)
(-4.63554 -0.082749463 0.5)
(-4.6352326 -0.081434295 0.5)
(-4.6349343 -0.08014848 0.5)
(-4.6346444 -0.078889815 0.5)
(-4.6343622 -0.077656262 0.5)
(-4.6340872 -0.076445925 0.5)
(-4.6338186 -0.075257038 0.5)
(-4.633556 -0.074087948 0.5)
(-4.633299 -0.072937107 0.5)
(-4.6330469 -0.071803053 0.5)
(-4.6327995 -0.070684409 0.5)
(-4.6325564 -0.069579867 0.5)
(-4.632317 -0.068488186 0.5)
(-4.6320812 -0.06740818 0.5)
(-4.6318486 -0.066338715 0.5)
(-4.6316189 -0.065278702 0.5)
(-4.6313917 -0.06422709 0.5)
(-4.6311668 -0.063182864 0.5)
(-4.630944 -0.062145039 0.5)
(-4.6307229 -0.061112654 0.5)
(-4.6305033 -0.060084771 0.5)
(-4.630285 -0.059060469 0.5)
(-4.6300677 -0.05803884 0.5)
(-4.6298513 -0.057018988 0.5)
(-4.6296353 -0.056000023 0.5)
(-4.6294197 -0.054981058 0.5)
(-4.6292042 -0.053961206 0.5)
(-4.6289886 -0.052939578 0.5)
(-4.6287726 -0.051915276 0.5)
(-4.628556 -0.050887393 0.5)
(-4.6283386 -0.049855009 0.5)
(-4.6281201 -0.048817184 0.5)
(-4.6279003 -0.047772959 0.5)
(-4.627679 -0.046721348 0.5)
(-4.6274558 -0.045661335 0.5)
(-4.6272306 -0.044591871 0.5)
(-4.6270029 -0.043511866 0.5)
(-4.6267727 -0.042420186 0.5)
(-4.6265394 -0.041315645 0.5)
(-4.6263029 -0.040197002 0.5)
(-4.6260628 -0.039062949 0.5)
(-4.6258186 -0.037912109 0.5)
(-4.62557 -0.036743022 0.5)
(-4.6253167 -0.035554137 0.5)
(-4.625058 -0.034343802 0.5)
(-4.6247936 -0.033110251 0.5)
(-4.624523 -0.03185159 0.5)
(-4.6242454 -0.030565777 0.5)
(-4.6239604 -0.029250613 0.5)
(-4.6236672 -0.027903708 0.5)
(-4.6233651 -0.026522467 0.5)
(-4.6230531 -0.02510405 0.5)
(-4.6227304 -0.023645354 0.5)
(-4.6223959 -0.022142954 0.5)
(-4.6220483 -0.020593064 0.5)
(-4.6216865 -0.01899148 0.5)
(-4.6213087 -0.017333509 0.5)
(-4.6209132 -0.01561388 0.5)
(-4.6204981 -0.013826643 0.5)
(-4.6200609 -0.011965038 0.5)
(-4.619599 -0.010021327 0.5)
(-4.6191089 -0.00798659 0.5)
(-4.6185869 -0.0058504518 0.5)
(-4.6180282 -0.0036007343 0.5)
(-4.6174272 -0.0012229904 0.5)
(-4.7856617 -0.11074205 0.5)
(-4.7848743 -0.10830036 0.5)
(-4.7841449 -0.1059985 0.5)
(-4.7834658 -0.10382001 0.5)
(-4.7828307 -0.10175109 0.5)
(-4.7822342 -0.099780066 0.5)
(-4.7816719 -0.097896958 0.5)
(-4.78114 -0.096093151 0.5)
(-4.7806352 -0.094361161 0.5)
(-4.7801549 -0.092694437 0.5)
(-4.7796964 -0.091087204 0.5)
(-4.7792578 -0.089534343 0.5)
(-4.7788371 -0.088031291 0.5)
(-4.7784327 -0.086573955 0.5)
(-4.7780432 -0.085158653 0.5)
(-4.7776673 -0.083782054 0.5)
(-4.7773037 -0.082441129 0.5)
(-4.7769515 -0.081133114 0.5)
(-4.7766097 -0.079855479 0.5)
(-4.7762775 -0.078605897 0.5)
(-4.775954 -0.07738222 0.5)
(-4.7756386 -0.076182458 0.5)
(-4.7753306 -0.075004761 0.5)
(-4.7750294 -0.073847405 0.5)
(-4.7747344 -0.072708775 0.5)
(-4.7744452 -0.071587354 0.5)
(-4.7741612 -0.070481715 0.5)
(-4.773882 -0.069390505 0.5)
(-4.7736073 -0.068312443 0.5)
(-4.7733364 -0.067246309 0.5)
(-4.7730693 -0.066190935 0.5)
(-4.7728053 -0.065145205 0.5)
(-4.7725443 -0.064108042 0.5)
(-4.7722859 -0.063078406 0.5)
(-4.7720297 -0.062055291 0.5)
(-4.7717756 -0.061037717 0.5)
(-4.7715231 -0.060024726 0.5)
(-4.7712721 -0.059015379 0.5)
(-4.7710222 -0.058008754 0.5)
(-4.7707732 -0.057003936 0.5)
(-4.7705248 -0.05600002 0.5)
(-4.7702767 -0.054996104 0.5)
(-4.7700287 -0.053991286 0.5)
(-4.7697805 -0.05298466 0.5)
(-4.7695318 -0.051975314 0.5)
(-4.7692825 -0.050962323 0.5)
(-4.7690321 -0.049944749 0.5)
(-4.7687805 -0.048921635 0.5)
(-4.7685273 -0.047892 0.5)
(-4.7682723 -0.046854837 0.5)
(-4.7680152 -0.045809107 0.5)
(-4.7677556 -0.044753734 0.5)
(-4.7674933 -0.0436876 0.5)
(-4.7672278 -0.042609539 0.5)
(-4.7669589 -0.041518331 0.5)
(-4.7666861 -0.040412692 0.5)
(-4.766409 -0.039291273 0.5)
(-4.7661273 -0.038152644 0.5)
(-4.7658405 -0.036995289 0.5)
(-4.765548 -0.035817594 0.5)
(-4.7652494 -0.034617834 0.5)
(-4.7649441 -0.033394158 0.5)
(-4.7646315 -0.032144579 0.5)
(-4.7643108 -0.030866947 0.5)
(-4.7639814 -0.029558935 0.5)
(-4.7636424 -0.028218013 0.5)
(-4.763293 -0.026841418 0.5)
(-4.7629321 -0.025426119 0.5)
(-4.7625587 -0.023968788 0.5)
(-4.7621714 -0.022465741 0.5)
(-4.7617689 -0.020912885 0.5)
(-4.7613496 -0.019305659 0.5)
(-4.7609117 -0.017638942 0.5)
(-4.7604531 -0.015906961 0.5)
(-4.7599714 -0.014103163 0.5)
(-4.7594639 -0.012220065 0.5)
(-4.7589272 -0.010249055 0.5)
(-4.7583575 -0.0081801502 0.5)
(-4.7577502 -0.0060016708 0.5)
(-4.7570998 -0.003699826 0.5)
(-4.7563995 -0.0012581547 0.5)
(-4.9284689 -0.11070675 0.5)
(-4.9276036 -0.10820098 0.5)
(-4.9268016 -0.10584687 0.5)
(-4.9260546 -0.10362593 0.5)
(-4.9253556 -0.10152277 0.5)
(-4.9246988 -0.099524382 0.5)
(-4.9240795 -0.09761973 0.5)
(-4.9234934 -0.095799324 0.5)
(-4.9229371 -0.094054954 0.5)
(-4.9224074 -0.092379465 0.5)
(-4.9219018 -0.090766576 0.5)
(-4.9214179 -0.089210743 0.5)
(-4.9209537 -0.087707044 0.5)
(-4.9205074 -0.086251078 0.5)
(-4.9200773 -0.084838902 0.5)
(-4.9196622 -0.083466961 0.5)
(-4.9192607 -0.082132034 0.5)
(-4.9188716 -0.080831191 0.5)
(-4.9184939 -0.079561757 0.5)
(-4.9181268 -0.07832128 0.5)
(-4.9177693 -0.077107503 0.5)
(-4.9174206 -0.075918342 0.5)
(-4.9170801 -0.074751863 0.5)
(-4.916747 -0.073606269 0.5)
(-4.9164209 -0.07247988 0.5)
(-4.916101 -0.071371124 0.5)
(-4.9157869 -0.070278522 0.5)
(-4.915478 -0.069200677 0.5)
(-4.915174 -0.068136268 0.5)
(-4.9148743 -0.067084039 0.5)
(-4.9145787 -0.066042792 0.5)
(-4.9142866 -0.065011379 0.5)
(-4.9139977 -0.0639887 0.5)
(-4.9137116 -0.062973691 0.5)
(-4.913428 -0.061965322 0.5)
(-4.9131467 -0.060962595 0.5)
(-4.9128671 -0.059964533 0.5)
(-4.9125891 -0.058970179 0.5)
(-4.9123124 -0.057978593 0.5)
(-4.9120366 -0.056988846 0.5)
(-4.9117614 -0.056000016 0.5)
(-4.9114866 -0.055011187 0.5)
(-4.9112118 -0.05402144 0.5)
(-4.9109369 -0.053029854 0.5)
(-4.9106614 -0.0520355 0.5)
(-4.910385 -0.051037438 0.5)
(-4.9101076 -0.050034711 0.5)
(-4.9098287 -0.049026343 0.5)
(-4.9095481 -0.048011334 0.5)
(-4.9092654 -0.046988655 0.5)
(-4.9089803 -0.045957243 0.5)
(-4.9086925 -0.044915997 0.5)
(-4.9084016 -0.043863768 0.5)
(-4.9081071 -0.04279936 0.5)
(-4.9078088 -0.041721516 0.5)
(-4.9075062 -0.040628914 0.5)
(-4.9071989 -0.039520159 0.5)
(-4.9068863 -0.038393772 0.5)
(-4.906568 -0.037248179 0.5)
(-4.9062434 -0.036081701 0.5)
(-4.9059119 -0.034892541 0.5)
(-4.905573 -0.033678766 0.5)
(-4.9052258 -0.032438291 0.5)
(-4.9048697 -0.031168859 0.5)
(-4.9045038 -0.029868017 0.5)
(-4.9041272 -0.028533093 0.5)
(-4.9037389 -0.027161155 0.5)
(-4.9033377 -0.025748982 0.5)
(-4.9029225 -0.02429302 0.5)
(-4.9024919 -0.022789324 0.5)
(-4.9020441 -0.021233495 0.5)
(-4.9015776 -0.019620611 0.5)
(-4.9010902 -0.017945128 0.5)
(-4.9005795 -0.016200764 0.5)
(-4.900043 -0.014380364 0.5)
(-4.8994774 -0.01247572 0.5)
(-4.8988792 -0.010477345 0.5)
(-4.8982438 -0.0083741875 0.5)
(-4.8975662 -0.0061532625 0.5)
(-4.8968401 -0.0037991617 0.5)
(-4.8960579 -0.0012934052 0.5)
(-5.0712856 -0.11067136 0.5)
(-5.0703594 -0.10810135 0.5)
(-5.0695008 -0.10569486 0.5)
(-5.0687007 -0.10343138 0.5)
(-5.0679517 -0.10129388 0.5)
(-5.0672479 -0.099268066 0.5)
(-5.0665839 -0.097341818 0.5)
(-5.0659555 -0.095504771 0.5)
(-5.0653587 -0.09374799 0.5)
(-5.0647904 -0.092063714 0.5)
(-5.0642478 -0.090445156 0.5)
(-5.0637284 -0.088886344 0.5)
(-5.0632301 -0.087381995 0.5)
(-5.0627508 -0.085927403 0.5)
(-5.062289 -0.084518361 0.5)
(-5.0618431 -0.08315109 0.5)
(-5.0614118 -0.081822176 0.5)
(-5.0609937 -0.080528521 0.5)
(-5.060588 -0.079267308 0.5)
(-5.0601934 -0.078035959 0.5)
(-5.0598091 -0.076832107 0.5)
(-5.0594344 -0.075653573 0.5)
(-5.0590683 -0.074498339 0.5)
(-5.0587102 -0.073364536 0.5)
(-5.0583595 -0.07225042 0.5)
(-5.0580155 -0.07115436 0.5)
(-5.0576778 -0.070074826 0.5)
(-5.0573456 -0.069010379 0.5)
(-5.0570186 -0.067959657 0.5)
(-5.0566963 -0.066921368 0.5)
(-5.0563783 -0.065894282 0.5)
(-5.0560641 -0.064877223 0.5)
(-5.0557533 -0.063869064 0.5)
(-5.0554455 -0.062868717 0.5)
(-5.0551404 -0.061875131 0.5)
(-5.0548377 -0.060887288 0.5)
(-5.0545369 -0.059904191 0.5)
(-5.0542378 -0.058924866 0.5)
(-5.05394 -0.057948357 0.5)
(-5.0536431 -0.056973719 0.5)
(-5.053347 -0.056000013 0.5)
(-5.0530512 -0.055026307 0.5)
(-5.0527555 -0.054051669 0.5)
(-5.0524595 -0.05307516 0.5)
(-5.052163 -0.052095836 0.5)
(-5.0518655 -0.051112739 0.5)
(-5.0515668 -0.050124895 0.5)
(-5.0512666 -0.04913131 0.5)
(-5.0509644 -0.048130963 0.5)
(-5.0506601 -0.047122804 0.5)
(-5.0503531 -0.046105746 0.5)
(-5.0500432 -0.04507866 0.5)
(-5.0497299 -0.044040371 0.5)
(-5.0494128 -0.04298965 0.5)
(-5.0490915 -0.041925203 0.5)
(-5.0487656 -0.04084567 0.5)
(-5.0484345 -0.039749611 0.5)
(-5.0480978 -0.038635495 0.5)
(-5.0477548 -0.037501693 0.5)
(-5.0474051 -0.03634646 0.5)
(-5.0470479 -0.035167927 0.5)
(-5.0466826 -0.033964076 0.5)
(-5.0463084 -0.032732728 0.5)
(-5.0459245 -0.031471517 0.5)
(-5.0455301 -0.030177864 0.5)
(-5.045124 -0.028848951 0.5)
(-5.0447052 -0.027481683 0.5)
(-5.0442726 -0.026072642 0.5)
(-5.0438247 -0.024618052 0.5)
(-5.04336 -0.023113706 0.5)
(-5.0428768 -0.021554897 0.5)
(-5.0423732 -0.019936342 0.5)
(-5.041847 -0.01825207 0.5)
(-5.0412955 -0.016495293 0.5)
(-5.0407159 -0.01465825 0.5)
(-5.0401048 -0.012732007 0.5)
(-5.0394581 -0.010706198 0.5)
(-5.0387711 -0.0085687042 0.5)
(-5.0380382 -0.0063052287 0.5)
(-5.0372525 -0.0038987426 0.5)
(-5.0364058 -0.0013287424 0.5)
(-5.2141117 -0.11063587 0.5)
(-5.2131419 -0.10800147 0.5)
(-5.2122426 -0.10554247 0.5)
(-5.2114044 -0.10323634 0.5)
(-5.2106196 -0.10106443 0.5)
(-5.2098818 -0.099011114 0.5)
(-5.2091857 -0.097063217 0.5)
(-5.2085266 -0.095209489 0.5)
(-5.2079007 -0.093440266 0.5)
(-5.2073046 -0.091747181 0.5)
(-5.2067353 -0.090122939 0.5)
(-5.2061902 -0.088561141 0.5)
(-5.2056671 -0.087056142 0.5)
(-5.205164 -0.085602926 0.5)
(-5.2046792 -0.084197026 0.5)
(-5.204211 -0.082834437 0.5)
(-5.203758 -0.08151155 0.5)
(-5.203319 -0.080225102 0.5)
(-5.2028928 -0.07897213 0.5)
(-5.2024784 -0.077749931 0.5)
(-5.2020747 -0.076556029 0.5)
(-5.201681 -0.075388148 0.5)
(-5.2012964 -0.074244188 0.5)
(-5.2009202 -0.073122205 0.5)
(-5.2005516 -0.072020391 0.5)
(-5.2001902 -0.070937058 0.5)
(-5.1998352 -0.069870626 0.5)
(-5.1994862 -0.06881961 0.5)
(-5.1991426 -0.067782609 0.5)
(-5.1988038 -0.066758294 0.5)
(-5.1984696 -0.065745404 0.5)
(-5.1981393 -0.064742735 0.5)
(-5.1978126 -0.063749131 0.5)
(-5.1974892 -0.062763483 0.5)
(-5.1971685 -0.061784717 0.5)
(-5.1968503 -0.060811794 0.5)
(-5.1965341 -0.059843699 0.5)
(-5.1962197 -0.058879442 0.5)
(-5.1959066 -0.057918047 0.5)
(-5.1955946 -0.056958554 0.5)
(-5.1952833 -0.05600001 0.5)
(-5.1949723 -0.055041465 0.5)
(-5.1946615 -0.054081972 0.5)
(-5.1943503 -0.053120578 0.5)
(-5.1940385 -0.05215632 0.5)
(-5.1937258 -0.051188226 0.5)
(-5.1934118 -0.050215303 0.5)
(-5.1930961 -0.049236537 0.5)
(-5.1927784 -0.048250889 0.5)
(-5.1924584 -0.047257286 0.5)
(-5.1921357 -0.046254616 0.5)
(-5.1918098 -0.045241726 0.5)
(-5.1914804 -0.044217412 0.5)
(-5.191147 -0.043180411 0.5)
(-5.1908091 -0.042129395 0.5)
(-5.1904664 -0.041062964 0.5)
(-5.1901182 -0.039979631 0.5)
(-5.189764 -0.038877817 0.5)
(-5.1894033 -0.037755835 0.5)
(-5.1890355 -0.036611876 0.5)
(-5.1886597 -0.035443995 0.5)
(-5.1882754 -0.034250094 0.5)
(-5.1878818 -0.033027896 0.5)
(-5.1874779 -0.031774925 0.5)
(-5.1870628 -0.030488478 0.5)
(-5.1866355 -0.029165592 0.5)
(-5.1861947 -0.027803004 0.5)
(-5.1857393 -0.026397105 0.5)
(-5.1852678 -0.024943891 0.5)
(-5.1847785 -0.023438892 0.5)
(-5.1842697 -0.021877096 0.5)
(-5.1837393 -0.020252856 0.5)
(-5.1831849 -0.018559773 0.5)
(-5.1826039 -0.016790551 0.5)
(-5.1819931 -0.014936825 0.5)
(-5.1813489 -0.012988929 0.5)
(-5.1806671 -0.010935619 0.5)
(-5.1799426 -0.0087637028 0.5)
(-5.1791694 -0.0064575713 0.5)
(-5.1783403 -0.0039985701 0.5)
(-5.1774466 -0.0013641666 0.5)
(-5.3569472 -0.1106003 0.5)
(-5.3559512 -0.10790135 0.5)
(-5.3550273 -0.10538971 0.5)
(-5.354166 -0.10304082 0.5)
(-5.3533594 -0.1008344 0.5)
(-5.352601 -0.098753524 0.5)
(-5.3518853 -0.096783923 0.5)
(-5.3512075 -0.094913472 0.5)
(-5.3505638 -0.093131777 0.5)
(-5.3499505 -0.091429862 0.5)
(-5.3493648 -0.089799922 0.5)
(-5.3488039 -0.088235131 0.5)
(-5.3482656 -0.086729479 0.5)
(-5.3477478 -0.085277643 0.5)
(-5.3472487 -0.083874892 0.5)
(-5.3467667 -0.082516996 0.5)
(-5.3463004 -0.081200152 0.5)
(-5.3458484 -0.07992093 0.5)
(-5.3454096 -0.07867622 0.5)
(-5.3449828 -0.077463193 0.5)
(-5.3445671 -0.076279265 0.5)
(-5.3441616 -0.075122064 0.5)
(-5.3437655 -0.073989406 0.5)
(-5.3433781 -0.072879273 0.5)
(-5.3429985 -0.071789791 0.5)
(-5.3426263 -0.070719217 0.5)
(-5.3422606 -0.069665919 0.5)
(-5.3419011 -0.068628368 0.5)
(-5.3415472 -0.067605121 0.5)
(-5.3411983 -0.066594816 0.5)
(-5.3408539 -0.065596157 0.5)
(-5.3405138 -0.064607912 0.5)
(-5.3401773 -0.0636289 0.5)
(-5.3398441 -0.062657987 0.5)
(-5.3395138 -0.061694078 0.5)
(-5.339186 -0.060736113 0.5)
(-5.3388603 -0.059783058 0.5)
(-5.3385364 -0.058833905 0.5)
(-5.338214 -0.057887662 0.5)
(-5.3378926 -0.056943352 0.5)
(-5.337572 -0.056000006 0.5)
(-5.3372517 -0.055056661 0.5)
(-5.3369315 -0.054112351 0.5)
(-5.336611 -0.053166108 0.5)
(-5.3362899 -0.052216955 0.5)
(-5.3359678 -0.0512639 0.5)
(-5.3356443 -0.050305935 0.5)
(-5.3353192 -0.049342026 0.5)
(-5.3349921 -0.048371113 0.5)
(-5.3346625 -0.047392101 0.5)
(-5.33433 -0.046403856 0.5)
(-5.3339944 -0.045405198 0.5)
(-5.3336551 -0.044394892 0.5)
(-5.3333117 -0.043371646 0.5)
(-5.3329637 -0.042334094 0.5)
(-5.3326107 -0.041280797 0.5)
(-5.3322521 -0.040210223 0.5)
(-5.3318873 -0.039120742 0.5)
(-5.3315157 -0.038010609 0.5)
(-5.3311368 -0.036877951 0.5)
(-5.3307498 -0.03572075 0.5)
(-5.3303539 -0.034536822 0.5)
(-5.3299483 -0.033323796 0.5)
(-5.3295322 -0.032079086 0.5)
(-5.3291045 -0.030799864 0.5)
(-5.3286641 -0.02948302 0.5)
(-5.32821 -0.028125124 0.5)
(-5.3277406 -0.026722374 0.5)
(-5.3272546 -0.025270539 0.5)
(-5.3267502 -0.023764886 0.5)
(-5.3262257 -0.022200095 0.5)
(-5.3256788 -0.020570155 0.5)
(-5.3251071 -0.01886824 0.5)
(-5.3245078 -0.017086544 0.5)
(-5.3238776 -0.015216092 0.5)
(-5.323213 -0.013246489 0.5)
(-5.3225093 -0.011165609 0.5)
(-5.3217614 -0.0089591857 0.5)
(-5.3209631 -0.0066102922 0.5)
(-5.3201069 -0.0040986453 0.5)
(-5.3191837 -0.0013996784 0.5)
(-5.4997921 -0.11056464 0.5)
(-5.4987873 -0.10780097 0.5)
(-5.4978551 -0.10523656 0.5)
(-5.4969858 -0.10284481 0.5)
(-5.4961716 -0.1006038 0.5)
(-5.4954059 -0.098495292 0.5)
(-5.4946832 -0.096503934 0.5)
(-5.4939987 -0.094616719 0.5)
(-5.4933484 -0.09282252 0.5)
(-5.4927289 -0.091111752 0.5)
(-5.4921371 -0.089476101 0.5)
(-5.4915703 -0.087908308 0.5)
(-5.4910263 -0.086402002 0.5)
(-5.490503 -0.08495155 0.5)
(-5.4899985 -0.083551957 0.5)
(-5.4895113 -0.082198766 0.5)
(-5.4890399 -0.08088798 0.5)
(-5.4885829 -0.079616 0.5)
(-5.4881393 -0.078379572 0.5)
(-5.4877078 -0.077175741 0.5)
(-5.4872875 -0.076001812 0.5)
(-5.4868775 -0.074855318 0.5)
(-5.486477 -0.073733989 0.5)
(-5.4860852 -0.072635735 0.5)
(-5.4857014 -0.071558617 0.5)
(-5.485325 -0.070500834 0.5)
(-5.4849553 -0.069460703 0.5)
(-5.4845918 -0.06843665 0.5)
(-5.4842338 -0.067427192 0.5)
(-5.4838811 -0.06643093 0.5)
(-5.4835329 -0.065446539 0.5)
(-5.4831889 -0.064472754 0.5)
(-5.4828487 -0.063508371 0.5)
(-5.4825118 -0.062552229 0.5)
(-5.4821779 -0.061603214 0.5)
(-5.4818465 -0.060660243 0.5)
(-5.4815172 -0.059722265 0.5)
(-5.4811898 -0.058788254 0.5)
(-5.4808638 -0.057857201 0.5)
(-5.4805389 -0.056928112 0.5)
(-5.4802148 -0.056000003 0.5)
(-5.4798911 -0.055071894 0.5)
(-5.4795674 -0.054142806 0.5)
(-5.4792435 -0.053211752 0.5)
(-5.4789189 -0.052277741 0.5)
(-5.4785934 -0.051339763 0.5)
(-5.4782665 -0.050396792 0.5)
(-5.4779379 -0.049447777 0.5)
(-5.4776073 -0.048491635 0.5)
(-5.4772742 -0.047527252 0.5)
(-5.4769383 -0.046553468 0.5)
(-5.4765991 -0.045569076 0.5)
(-5.4762562 -0.044572815 0.5)
(-5.4759092 -0.043563357 0.5)
(-5.4755576 -0.042539303 0.5)
(-5.4752008 -0.041499172 0.5)
(-5.4748385 -0.040441389 0.5)
(-5.4744699 -0.039364271 0.5)
(-5.4740944 -0.038266017 0.5)
(-5.4737115 -0.037144688 0.5)
(-5.4733204 -0.035998193 0.5)
(-5.4729203 -0.034824264 0.5)
(-5.4725105 -0.033620433 0.5)
(-5.4720899 -0.032384005 0.5)
(-5.4716577 -0.031112025 0.5)
(-5.4712126 -0.029801238 0.5)
(-5.4707536 -0.028448046 0.5)
(-5.4702791 -0.027048452 0.5)
(-5.4697878 -0.025598 0.5)
(-5.4692779 -0.024091692 0.5)
(-5.4687475 -0.022523898 0.5)
(-5.4681944 -0.020888245 0.5)
(-5.4676162 -0.019177475 0.5)
(-5.46701 -0.017383273 0.5)
(-5.4663725 -0.015496054 0.5)
(-5.4657 -0.013504691 0.5)
(-5.4649878 -0.011396172 0.5)
(-5.4642308 -0.0091551552 0.5)
(-5.4634227 -0.0067633932 0.5)
(-5.4625557 -0.0041989694 0.5)
(-5.4616207 -0.0014352782 0.5)
(-5.6426465 -0.11052889 0.5)
(-5.6416505 -0.10770034 0.5)
(-5.6407262 -0.10508303 0.5)
(-5.6398641 -0.10264831 0.5)
(-5.6390566 -0.10037263 0.5)
(-5.638297 -0.098236415 0.5)
(-5.6375799 -0.096223246 0.5)
(-5.6369007 -0.094319224 0.5)
(-5.6362553 -0.09251249 0.5)
(-5.6356404 -0.090792848 0.5)
(-5.6350529 -0.089151471 0.5)
(-5.6344902 -0.08758067 0.5)
(-5.6339501 -0.086073708 0.5)
(-5.6334304 -0.084624644 0.5)
(-5.6329295 -0.083228215 0.5)
(-5.6324457 -0.081879741 0.5)
(-5.6319775 -0.080575028 0.5)
(-5.6315237 -0.079310308 0.5)
(-5.631083 -0.078082184 0.5)
(-5.6306544 -0.076887572 0.5)
(-5.630237 -0.075723667 0.5)
(-5.6298298 -0.074587905 0.5)
(-5.629432 -0.073477935 0.5)
(-5.6290428 -0.07239159 0.5)
(-5.6286616 -0.071326866 0.5)
(-5.6282877 -0.070281905 0.5)
(-5.6279205 -0.069254974 0.5)
(-5.6275595 -0.068244453 0.5)
(-5.627204 -0.067248818 0.5)
(-5.6268536 -0.066266636 0.5)
(-5.6265079 -0.065296547 0.5)
(-5.6261663 -0.064337259 0.5)
(-5.6258285 -0.06338754 0.5)
(-5.625494 -0.062446208 0.5)
(-5.6251624 -0.061512123 0.5)
(-5.6248333 -0.060584184 0.5)
(-5.6245065 -0.059661321 0.5)
(-5.6241814 -0.05874249 0.5)
(-5.6238578 -0.057826664 0.5)
(-5.6235353 -0.056912834 0.5)
(-5.6232136 -0.056 0.5)
(-5.6228923 -0.055087166 0.5)
(-5.6225711 -0.054173336 0.5)
(-5.6222496 -0.05325751 0.5)
(-5.6219275 -0.052338679 0.5)
(-5.6216045 -0.051415816 0.5)
(-5.6212801 -0.050487877 0.5)
(-5.6209541 -0.049553792 0.5)
(-5.6206261 -0.048612459 0.5)
(-5.6202956 -0.04766274 0.5)
(-5.6199624 -0.046703453 0.5)
(-5.6196259 -0.045733363 0.5)
(-5.6192858 -0.044751181 0.5)
(-5.6189416 -0.043755546 0.5)
(-5.6185929 -0.042745024 0.5)
(-5.618239 -0.041718093 0.5)
(-5.6178796 -0.040673132 0.5)
(-5.617514 -0.039608408 0.5)
(-5.6171417 -0.038522062 0.5)
(-5.6167619 -0.037412091 0.5)
(-5.616374 -0.036276329 0.5)
(-5.6159773 -0.035112424 0.5)
(-5.6155708 -0.033917811 0.5)
(-5.6151537 -0.032689685 0.5)
(-5.614725 -0.031424965 0.5)
(-5.6142835 -0.030120251 0.5)
(-5.6138282 -0.028771775 0.5)
(-5.6133575 -0.027375345 0.5)
(-5.6128701 -0.025926278 0.5)
(-5.6123642 -0.024419314 0.5)
(-5.611838 -0.02284851 0.5)
(-5.6112891 -0.021207129 0.5)
(-5.6107153 -0.019487482 0.5)
(-5.6101136 -0.017680743 0.5)
(-5.6094808 -0.015776714 0.5)
(-5.6088131 -0.013763537 0.5)
(-5.608106 -0.01162731 0.5)
(-5.6073541 -0.0093516138 0.5)
(-5.6065514 -0.0069168763 0.5)
(-5.60569 -0.0042995437 0.5)
(-5.6047609 -0.0014709663 0.5)
(-5.7855104 -0.11049305 0.5)
(-5.7845408 -0.10759946 0.5)
(-5.7836407 -0.10492912 0.5)
(-5.7828012 -0.10245132 0.5)
(-5.7820146 -0.10014088 0.5)
(-5.7812746 -0.09797689 0.5)
(-5.7805759 -0.095941855 0.5)