/*--------------------------------*- C++ -*----------------------------------*\
| =========                 |                                                 |
| \\      /  F ield         | OpenFOAM: The Open Source CFD Toolbox           |
|  \\    /   O peration     | Version:  v2006                                 |
|   \\  /    A nd           | Website:  www.openfoam.com                      |
|    \\/     M anipulation  |                                                 |
\*---------------------------------------------------------------------------*/
FoamFile
{
    version     2.0;
    format      ascii;
    class       volScalarField;
    location    "10000";
    object      Cp;
}
// * * * * * * * * * * * * * * * * * * * * * * * * * * * * * * * * * * * * * //

dimensions      [0 0 0 0 0 0 0];


internalField   nonuniform List<scalar> 
102907
(
0.0056749712
0.0056755036
0.005675469
0.0056758558
0.0056758385
0.0056760701
0.0056760519
0.0056761388
0.0056760802
0.0056760292
0.0056760389
0.0056760656
0.0056761171
0.0056761948
0.0056763071
0.0056764464
0.0056766037
0.0056767301
0.0056768066
0.0056768189
0.0056767608
0.0056767244
0.0056767194
0.0056767266
0.0056767552
0.0056768054
0.005676877
0.0056769553
0.0056770224
0.0056770564
0.0056770415
0.0056770028
0.0056769794
0.0056769743
0.0056769839
0.0056770061
0.005677035
0.0056770638
0.005677072
0.0056770521
0.0056770225
0.0056769923
0.0056769721
0.0056769641
0.0056769629
0.005676961
0.0056769534
0.0056769378
0.0056769234
0.0056769125
0.0056769008
0.0056768878
0.0056768712
0.00567684
0.0056767885
0.0056767244
0.0056766579
0.0056765973
0.0056765495
0.0056765171
0.0056764938
0.005676468
0.0056764341
0.0056764033
0.005676381
0.005676337
0.0056762538
0.0056761364
0.0056760097
0.005675892
0.0056757876
0.0056756995
0.0056756291
0.0056755762
0.0056755406
0.0056755045
0.0056754715
0.0056754302
0.0056753867
0.0056753468
0.0056752759
0.0053572837
0.0053583807
0.0053584275
0.0053591789
0.0053593816
0.0053598925
0.0053601698
0.0053605611
0.005360868
0.0053611259
0.0053612889
0.0053613981
0.0053614718
0.0053615482
0.0053616692
0.0053618538
0.0053621131
0.0053624328
0.0053627481
0.0053629963
0.0053631634
0.0053632422
0.0053632613
0.0053632597
0.0053632807
0.0053633515
0.0053634846
0.0053636717
0.005363901
0.0053641351
0.0053643135
0.0053644131
0.0053644287
0.005364403
0.0053644335
0.0053645254
0.0053646786
0.0053648953
0.0053650855
0.0053652534
0.0053653423
0.0053653304
0.0053652723
0.0053652713
0.005365312
0.0053654271
0.0053656509
0.0053659044
0.0053661392
0.0053662783
0.0053663747
0.0053664203
0.0053664552
0.0053664168
0.0053663397
0.005366355
0.0053664696
0.0053666537
0.0053668864
0.0053670967
0.0053672893
0.0053674041
0.0053674871
0.0053675095
0.0053675274
0.005367506
0.0053673824
0.0053672975
0.0053673381
0.0053675002
0.0053677633
0.0053680982
0.0053684675
0.0053687999
0.0053691172
0.0053693975
0.0053697118
0.0053699939
0.0053703284
0.0053706805
0.0053709258
0.0050698371
0.0050712684
0.0050714845
0.00507246
0.005072871
0.0050735872
0.00507407
0.0050747073
0.0050752792
0.0050758305
0.005076299
0.0050766972
0.0050770186
0.0050772745
0.0050774822
0.0050776799
0.0050779059
0.005078196
0.0050785668
0.0050789937
0.0050793802
0.0050796946
0.0050799414
0.0050801157
0.0050802485
0.0050803505
0.0050804569
0.0050805914
0.0050807754
0.0050810254
0.0050813313
0.0050816187
0.0050818404
0.005081989
0.0050820818
0.0050821538
0.005082249
0.0050823919
0.0050825942
0.0050828319
0.0050830879
0.0050832855
0.0050834256
0.0050835275
0.0050836275
0.0050837458
0.00508391
0.0050841517
0.0050843344
0.0050844401
0.0050844821
0.0050844927
0.0050845242
0.0050846118
0.0050848003
0.0050850811
0.0050854443
0.0050858214
0.0050861169
0.00508631
0.0050864125
0.0050864495
0.0050864142
0.005086367
0.0050863785
0.0050864674
0.0050866796
0.005087003
0.0050874506
0.0050879864
0.0050885347
0.0050889982
0.0050893732
0.0050896454
0.0050898442
0.0050899861
0.005090207
0.0050903444
0.0050907415
0.0050910389
0.0050915554
0.0048076211
0.004809268
0.0048096157
0.0048107328
0.0048112549
0.0048120945
0.004812666
0.0048133734
0.004813975
0.004814671
0.0048153425
0.0048159672
0.0048165157
0.0048169896
0.0048173964
0.0048177334
0.0048180224
0.0048183062
0.0048186292
0.0048190255
0.0048194956
0.0048199768
0.0048204117
0.0048207817
0.0048210994
0.0048213695
0.0048215983
0.0048217988
0.004821997
0.0048222255
0.0048225228
0.0048228959
0.0048232699
0.0048235882
0.0048238483
0.0048240395
0.004824183
0.0048243224
0.0048244942
0.0048247277
0.0048250453
0.0048254081
0.0048257498
0.0048260584
0.0048263384
0.0048265494
0.0048266813
0.0048267823
0.0048268783
0.0048269965
0.00482716
0.0048273668
0.0048276295
0.0048279651
0.0048283771
0.0048288145
0.0048291707
0.0048294177
0.0048295726
0.0048296665
0.0048297498
0.0048298749
0.0048300563
0.0048303319
0.004830697
0.0048311739
0.0048317606
0.0048324115
0.0048329821
0.0048334144
0.0048337089
0.0048339
0.0048340362
0.00483414
0.0048343131
0.0048344666
0.0048348165
0.0048350471
0.0048357183
0.0048360208
0.0048369489
0.0045701158
0.0045718913
0.0045723279
0.0045735199
0.0045741141
0.0045749987
0.0045756045
0.0045762783
0.0045768276
0.0045774171
0.004578021
0.0045786689
0.0045793349
0.0045799597
0.0045805169
0.0045809986
0.0045814064
0.0045817493
0.0045820609
0.0045823856
0.00458276
0.0045832019
0.004583693
0.0045841928
0.0045846552
0.0045850708
0.0045854386
0.0045857681
0.0045860516
0.0045863028
0.0045865625
0.0045868824
0.0045872726
0.004587692
0.0045880676
0.0045883852
0.0045886447
0.0045888621
0.0045890652
0.0045892871
0.0045895604
0.0045899142
0.0045903417
0.0045907665
0.0045911318
0.0045914175
0.0045916188
0.0045917568
0.0045919064
0.004592124
0.0045924283
0.0045928011
0.0045932367
0.0045937118
0.0045941215
0.0045944317
0.0045946485
0.0045948153
0.0045949841
0.0045952014
0.0045954966
0.0045958664
0.0045963251
0.0045968813
0.004597509
0.0045981393
0.0045986658
0.004599068
0.004599355
0.0045995605
0.0045997644
0.0045999882
0.0046003123
0.004600695
0.0046011999
0.004601695
0.004602349
0.0046027905
0.0046036356
0.0046040118
0.0046051236
0.004354914
0.0043567521
0.0043572376
0.0043584642
0.0043591207
0.0043600192
0.004360667
0.004361349
0.0043619096
0.00436245
0.0043629561
0.0043634815
0.0043640387
0.0043646343
0.0043652503
0.0043658298
0.0043663426
0.0043667901
0.004367163
0.0043674846
0.0043677946
0.004368125
0.0043684927
0.0043689112
0.0043693619
0.004369833
0.0043702902
0.0043707071
0.0043710783
0.0043713932
0.004371658
0.0043719177
0.0043722194
0.0043725775
0.0043729763
0.0043733766
0.0043737396
0.0043740676
0.0043743805
0.0043746788
0.0043749575
0.0043752295
0.0043755251
0.0043758335
0.0043761364
0.0043764333
0.0043767179
0.0043769746
0.0043772546
0.0043775866
0.0043779845
0.0043784273
0.004378845
0.0043791922
0.0043794516
0.0043796575
0.0043798575
0.0043801034
0.0043804232
0.0043808137
0.0043812878
0.0043818335
0.0043824137
0.0043829357
0.0043833794
0.0043837207
0.0043839847
0.0043841992
0.0043844195
0.0043847005
0.0043850759
0.00438557
0.0043861631
0.0043868139
0.0043875534
0.0043882053
0.0043890257
0.0043895787
0.0043905149
0.0043909536
0.0043921675
0.0041591797
0.0041610152
0.0041615179
0.0041627392
0.0041634276
0.0041643283
0.0041650128
0.0041657419
0.0041663747
0.0041669627
0.0041674762
0.0041679614
0.0041684313
0.0041689207
0.0041694494
0.0041700191
0.0041705975
0.0041711264
0.0041715914
0.0041719986
0.0041723495
0.0041726601
0.0041729643
0.004173278
0.0041736205
0.0041739952
0.0041743968
0.0041748163
0.0041752312
0.0041756069
0.0041759226
0.0041761865
0.0041764369
0.0041767131
0.0041770423
0.0041774316
0.0041778636
0.004178288
0.0041786973
0.0041790849
0.0041794178
0.0041797017
0.0041799422
0.0041801806
0.0041804537
0.0041807727
0.004181129
0.0041814943
0.0041818811
0.0041822938
0.0041826906
0.0041830392
0.0041833251
0.0041835623
0.004183787
0.0041840446
0.004184361
0.0041847396
0.0041851899
0.004185698
0.0041862107
0.0041866688
0.004187052
0.0041873657
0.0041876175
0.0041878535
0.004188095
0.0041883926
0.0041887664
0.0041892373
0.0041897993
0.0041904276
0.0041910994
0.0041916955
0.004192387
0.0041929576
0.0041937932
0.0041943378
0.0041953196
0.0041957916
0.0041970605
0.0039818387
0.0039836092
0.0039841108
0.0039852842
0.0039859634
0.003986839
0.0039875267
0.0039882632
0.0039889291
0.0039895644
0.0039901338
0.0039906473
0.0039911069
0.0039915416
0.0039919738
0.003992435
0.0039929388
0.0039934801
0.0039940071
0.0039944853
0.0039949087
0.0039952836
0.0039956124
0.0039959108
0.0039961983
0.0039964883
0.0039967996
0.003997139
0.0039975137
0.0039979104
0.0039982713
0.0039985828
0.0039988521
0.0039991002
0.0039993606
0.0039996564
0.0040000003
0.0040003759
0.0040007494
0.0040010974
0.0040014045
0.0040016893
0.0040019569
0.0040022331
0.0040025376
0.0040028904
0.0040032992
0.004003739
0.0040041851
0.0040045753
0.0040048915
0.0040051444
0.0040053697
0.0040056095
0.0040059023
0.0040062563
0.0040066732
0.0040071435
0.0040076229
0.0040080505
0.0040084109
0.004008713
0.0040089701
0.004009217
0.0040094822
0.0040097889
0.0040101582
0.0040105949
0.004011103
0.0040116749
0.0040122967
0.0040128625
0.0040134501
0.0040139339
0.0040145542
0.0040150281
0.004015792
0.004016286
0.0040172524
0.0040177109
0.0040189784
0.0038215825
0.0038232452
0.0038237361
0.0038248311
0.0038254747
0.0038262995
0.0038269561
0.0038276688
0.0038283101
0.0038289568
0.0038295562
0.0038301088
0.0038306076
0.003831051
0.0038314491
0.0038318276
0.0038322169
0.0038326389
0.0038331014
0.0038335966
0.0038340717
0.0038345049
0.0038348919
0.0038352435
0.0038355554
0.0038358461
0.003836124
0.0038364078
0.0038367199
0.003837076
0.0038374606
0.0038378154
0.0038381315
0.0038384093
0.0038386578
0.0038388915
0.0038391242
0.0038393685
0.0038396174
0.0038398613
0.0038401001
0.0038403488
0.0038406093
0.0038408969
0.0038411955
0.0038415198
0.003841864
0.003842223
0.0038425522
0.0038428325
0.0038430713
0.0038432951
0.0038435427
0.0038438433
0.0038442012
0.0038446127
0.0038450424
0.0038454379
0.0038457761
0.0038460618
0.0038463065
0.003846542
0.0038467943
0.0038470801
0.0038474199
0.003847815
0.0038482664
0.003848777
0.0038493457
0.0038499259
0.0038505275
0.0038510514
0.0038516452
0.0038521375
0.0038527917
0.0038532656
0.0038540086
0.0038544713
0.0038553861
0.003855807
0.0038570209
0.0036768211
0.0036783409
0.0036788149
0.0036798111
0.003680419
0.0036811749
0.0036817899
0.0036824568
0.0036830506
0.0036836711
0.0036842581
0.0036848262
0.0036853496
0.0036858239
0.003686249
0.0036866247
0.0036869628
0.0036872887
0.0036876319
0.0036880082
0.0036884215
0.0036888649
0.0036892901
0.0036896843
0.0036900417
0.0036903704
0.0036906708
0.0036909478
0.0036912156
0.0036915087
0.0036918493
0.0036922233
0.0036925774
0.0036928985
0.0036931871
0.0036934369
0.0036936584
0.0036938599
0.0036940568
0.0036942582
0.0036944696
0.003694694
0.0036949302
0.0036951705
0.0036954083
0.0036956496
0.0036958871
0.003696119
0.0036963332
0.0036965436
0.0036967727
0.0036970339
0.0036973338
0.0036976771
0.0036980545
0.0036984056
0.0036987132
0.0036989763
0.0036992008
0.0036994158
0.0036996412
0.0036998945
0.0037001924
0.0037005375
0.0037009307
0.0037013778
0.0037018771
0.0037024147
0.0037029517
0.0037034403
0.003703944
0.0037043753
0.0037049035
0.0037053389
0.0037059584
0.0037064016
0.0037071096
0.0037075459
0.0037084007
0.0037087864
0.0037099229
0.0035467717
0.0035481254
0.0035485689
0.0035494538
0.0035500153
0.003550693
0.0035512461
0.0035518333
0.0035523455
0.0035528665
0.0035533587
0.0035538673
0.003554374
0.0035548599
0.0035553051
0.0035557032
0.0035560567
0.0035563684
0.0035566494
0.0035569238
0.0035572184
0.0035575429
0.0035579004
0.0035582801
0.003558656
0.0035590057
0.0035593241
0.0035596108
0.0035598589
0.003560088
0.003560334
0.0035606174
0.0035609306
0.0035612606
0.0035615763
0.0035618663
0.0035621294
0.0035623727
0.0035626006
0.0035628242
0.0035630515
0.0035632849
0.0035635193
0.0035637476
0.0035639594
0.0035641468
0.0035643148
0.0035644754
0.0035646466
0.0035648577
0.0035651172
0.0035654155
0.0035657488
0.0035660884
0.003566387
0.0035666365
0.0035668436
0.0035670355
0.0035672279
0.0035674464
0.003567703
0.0035680011
0.0035683412
0.0035687307
0.0035691639
0.0035696278
0.0035700735
0.0035704785
0.0035708475
0.0035711594
0.0035715011
0.0035718031
0.0035722191
0.0035725518
0.0035730762
0.0035734415
0.0035740838
0.0035744592
0.0035752356
0.0035755676
0.0035765986
0.003431718
0.0034328937
0.0034332947
0.0034340578
0.0034345603
0.0034351484
0.0034356221
0.0034361079
0.0034365224
0.0034369287
0.0034372999
0.003437673
0.0034380555
0.003438456
0.0034388726
0.003439274
0.003439639
0.0034399614
0.0034402419
0.0034404871
0.003440708
0.0034409257
0.0034411619
0.0034414185
0.0034416999
0.0034419936
0.0034422891
0.0034425635
0.0034428005
0.0034429949
0.0034431709
0.0034433495
0.0034435503
0.0034437765
0.0034440285
0.0034443059
0.0034445892
0.0034448608
0.0034451199
0.0034453703
0.0034456178
0.0034458639
0.0034461067
0.0034463409
0.00344656
0.0034467496
0.0034469149
0.0034470768
0.0034472634
0.0034474929
0.0034477571
0.0034480382
0.0034483068
0.0034485428
0.0034487383
0.0034489116
0.0034490805
0.003449266
0.0034494792
0.0034497289
0.0034500163
0.0034503463
0.0034507126
0.0034510949
0.0034514488
0.0034517634
0.0034520286
0.0034522543
0.0034524707
0.0034526837
0.0034529586
0.0034532182
0.003453595
0.0034538801
0.0034543414
0.0034546382
0.0034551927
0.0034554953
0.0034561706
0.0034564214
0.0034573211
0.0033313151
0.0033323267
0.0033326868
0.0033333376
0.0033337801
0.00333429
0.0033346953
0.0033351189
0.0033354764
0.0033358217
0.0033361274
0.0033364154
0.0033366903
0.0033369687
0.0033372661
0.0033375873
0.0033379275
0.0033382567
0.0033385523
0.0033388103
0.0033390297
0.0033392217
0.0033393946
0.0033395677
0.003339753
0.0033399577
0.0033401855
0.0033404326
0.0033406678
0.0033408731
0.0033410454
0.0033411997
0.003341344
0.0033414907
0.0033416485
0.0033418247
0.0033420291
0.0033422571
0.0033425035
0.0033427562
0.0033430069
0.003343251
0.003343487
0.0033437148
0.0033439372
0.0033441477
0.0033443474
0.0033445477
0.0033447618
0.0033449921
0.0033452079
0.0033453975
0.0033455616
0.0033457062
0.0033458506
0.003346012
0.0033462004
0.0033464172
0.0033466637
0.0033469422
0.0033472476
0.0033475518
0.0033478289
0.0033480702
0.003348273
0.003348444
0.0033486079
0.0033487752
0.0033489896
0.0033492234
0.0033495289
0.0033497904
0.0033501612
0.0033504144
0.0033508317
0.003351073
0.0033515533
0.0033517861
0.0033523666
0.0033525547
0.0033533428
0.0032377257
0.003238557
0.0032389348
0.0032394734
0.0032398768
0.0032403233
0.003240695
0.0032410745
0.0032414175
0.0032417486
0.0032420506
0.0032423239
0.0032425701
0.0032427925
0.0032430057
0.0032432258
0.0032434671
0.0032437358
0.0032440233
0.003244295
0.0032445354
0.0032447455
0.0032449251
0.0032450848
0.0032452324
0.0032453825
0.0032455488
0.0032457459
0.0032459747
0.0032461976
0.0032463985
0.003246579
0.0032467426
0.0032468869
0.0032470157
0.0032471361
0.0032472552
0.0032473864
0.0032475309
0.0032476874
0.0032478499
0.0032480135
0.0032481775
0.0032483485
0.0032485322
0.0032487379
0.0032489574
0.0032491835
0.0032494089
0.0032496105
0.0032497739
0.0032499114
0.0032500302
0.0032501517
0.0032502974
0.0032504785
0.0032506867
0.003250922
0.0032511744
0.0032514183
0.0032516382
0.0032518264
0.0032519889
0.0032521296
0.0032522705
0.0032524207
0.0032526046
0.0032528222
0.003253085
0.0032533518
0.0032536675
0.0032539274
0.0032542688
0.0032545155
0.0032548975
0.0032551334
0.0032555677
0.0032558023
0.0032563145
0.0032564981
0.0032571829
0.0031526057
0.0031531212
0.0031533847
0.0031536906
0.0031539975
0.0031542208
0.0031544985
0.0031547136
0.0031549642
0.0031551768
0.0031554013
0.0031556039
0.0031557899
0.0031559478
0.003156082
0.0031561999
0.0031563143
0.0031564426
0.0031565946
0.0031567721
0.0031569635
0.0031571393
0.0031572924
0.0031574235
0.003157536
0.0031576325
0.0031577194
0.0031578159
0.0031579375
0.0031580822
0.0031582395
0.0031583943
0.0031585363
0.003158662
0.0031587714
0.0031588578
0.0031589257
0.0031589795
0.0031590311
0.0031590822
0.0031591355
0.0031591917
0.003159255
0.0031593267
0.003159412
0.0031595104
0.0031596232
0.00315974
0.0031598533
0.0031599502
0.0031600362
0.0031601109
0.0031601919
0.0031602761
0.0031603855
0.0031604959
0.0031606266
0.0031607355
0.0031608487
0.0031609196
0.0031609958
0.0031610298
0.0031610901
0.0031611179
0.0031612062
0.0031612669
0.0031614059
0.0031614931
0.0031616578
0.0031617266
0.0031618934
0.0031619281
0.00316211
0.0031621225
0.0031623312
0.0031623253
0.0031625566
0.0031625579
0.0031628325
0.003162804
0.0031630935
0.0031112902
0.003111529
0.0031116479
0.0031118033
0.0031119939
0.0031121053
0.0031122319
0.0031123271
0.0031124388
0.0031125398
0.0031126509
0.0031127605
0.0031128635
0.0031129557
0.003113033
0.0031130947
0.0031131415
0.0031131771
0.0031132117
0.0031132609
0.0031133349
0.0031134303
0.0031135353
0.0031136283
0.0031137031
0.0031137603
0.0031138015
0.0031138268
0.0031138441
0.0031138639
0.0031138953
0.003113937
0.0031139897
0.003114052
0.0031141176
0.0031141753
0.0031142215
0.0031142577
0.0031142834
0.0031143015
0.0031143164
0.003114332
0.0031143494
0.0031143698
0.0031143955
0.0031144233
0.0031144558
0.0031144889
0.0031145221
0.003114556
0.0031145909
0.0031146313
0.0031146787
0.0031147311
0.0031147905
0.0031148544
0.0031149123
0.0031149629
0.0031150048
0.0031150398
0.003115075
0.0031151143
0.0031151592
0.0031152141
0.003115278
0.0031153526
0.0031154353
0.0031155233
0.0031156071
0.0031156875
0.0031157609
0.0031158393
0.0031159111
0.0031159869
0.0031160624
0.0031161192
0.0031162255
0.0031162201
0.0031163385
0.0031163029
0.0031164259
0.0030892135
0.0030899096
0.0030905337
0.0030905098
0.0030910193
0.0030910275
0.003091427
0.0030914774
0.0030917961
0.0030918308
0.003092101
0.0030921428
0.0030923947
0.0030924614
0.0030927105
0.0030927954
0.0030930124
0.0030930712
0.0030932153
0.0030932338
0.003093338
0.003093377
0.003093509
0.0030935965
0.0030937597
0.0030939065
0.0030940595
0.0030941795
0.0030942925
0.0030943886
0.003094491
0.0030946012
0.0030947306
0.0030948756
0.003095039
0.0030952139
0.0030953925
0.0030955628
0.0030957236
0.0030958755
0.0030960227
0.0030961681
0.003096313
0.0030964582
0.0030966019
0.0030967454
0.0030968881
0.0030970317
0.0030971751
0.0030973219
0.0030974722
0.0030976303
0.0030977949
0.0030979665
0.0030981395
0.0030983111
0.0030984762
0.0030986363
0.0030987921
0.0030989518
0.0030991198
0.0030993003
0.0030994947
0.0030997046
0.0030999294
0.0031001652
0.0031003961
0.0031006334
0.0031008573
0.0031011035
0.0031013323
0.0031016075
0.0031018505
0.003102163
0.0031024192
0.0031027772
0.0031030442
0.0031034496
0.0031037693
0.0031042395
0.0031048023
0.0028850772
0.0028850623
0.0028860783
0.002886631
0.0028873567
0.002888022
0.0028886634
0.002889257
0.0028898171
0.0028903441
0.0028908395
0.0028913014
0.0028917402
0.0028921518
0.0028925477
0.0028929215
0.0028932696
0.0028935951
0.0028938978
0.0028941794
0.0028944427
0.0028946896
0.0028949187
0.002895133
0.0028953325
0.002895481
0.0028956429
0.0028957689
0.0028959018
0.0028960084
0.0028961156
0.002896197
0.002896273
0.0028963261
0.0028963732
0.0028964075
0.0028964423
0.0028964828
0.00289653
0.0028965736
0.0028966109
0.0028966363
0.0028966498
0.0028966487
0.0028966425
0.0028966285
0.0028966076
0.0028965787
0.0028965427
0.0028964981
0.0028964458
0.0028963839
0.0028963128
0.0028962307
0.0028961382
0.0028960336
0.0028959179
0.0028957895
0.0028956493
0.0028954948
0.0028953257
0.0028951391
0.0028949347
0.00289471
0.0028944647
0.0028941947
0.0028939034
0.0028935871
0.002893247
0.0028928807
0.0028924817
0.0028920514
0.002891585
0.0028910745
0.0028905254
0.002889929
0.0028892411
0.0028886415
0.0028878133
0.0028871359
0.0028864014
0.0028469073
0.0028438156
0.0028423471
0.0028403127
0.0028387672
0.0028372398
0.0028357187
0.0028344142
0.0028330999
0.0028319253
0.0028307405
0.0028296746
0.0028285944
0.0028276041
0.0028266072
0.0028256992
0.002824811
0.0028239933
0.0028231981
0.0028224548
0.0028217323
0.0028210541
0.0028203882
0.0028197774
0.0028191562
0.0028185996
0.0028180224
0.0028175054
0.0028169702
0.0028164869
0.0028159865
0.0028155301
0.0028150592
0.0028146246
0.0028141774
0.0028137626
0.002813336
0.002812939
0.0028125301
0.0028121492
0.0028117554
0.0028113881
0.0028110079
0.002810655
0.002810287
0.00280995
0.0028095932
0.0028092716
0.0028089251
0.0028086187
0.0028082822
0.0028079907
0.0028076635
0.0028073872
0.0028070691
0.0028068086
0.0028064991
0.0028062549
0.0028059531
0.0028057252
0.002805429
0.0028052157
0.0028049208
0.0028047167
0.0028044152
0.0028042105
0.0028038899
0.0028036743
0.0028033235
0.0028030845
0.0028026956
0.002802432
0.0028019766
0.0028016813
0.0028011485
0.0028008054
0.0028001612
0.0027997345
0.002798784
0.0027985519
0.0027966195
0.0042743938
0.0042733711
0.0042722653
0.0042713869
0.0042703455
0.0042693675
0.0042684133
0.0042674994
0.0042666699
0.0042658765
0.0042651317
0.0042644327
0.0042637707
0.0042631405
0.0042625249
0.0042619286
0.004261363
0.0042608337
0.0042603412
0.004259881
0.0042594584
0.0042590668
0.0042587128
0.0042583931
0.0042581037
0.0042578456
0.004257605
0.0042573808
0.0042571728
0.0042569799
0.0042568014
0.0042566366
0.0042564854
0.0042563468
0.004256221
0.0042561071
0.0042560055
0.0042559155
0.0042558376
0.0042557711
0.0042557167
0.0042556731
0.0042556413
0.004255618
0.0042556035
0.004255597
0.0042555997
0.0042556112
0.0042556325
0.0042556634
0.0042557049
0.0042557568
0.0042558202
0.004255895
0.0042559824
0.0042560822
0.0042561957
0.0042563225
0.004256464
0.0042566197
0.0042567908
0.0042569767
0.0042571786
0.0042573964
0.0042576317
0.0042578851
0.0042581613
0.0042584642
0.0042587961
0.0042591574
0.0042595505
0.0042599803
0.0042604466
0.0042609544
0.0042614963
0.0042620924
0.0042627221
0.0042634216
0.00426408
0.0042648178
0.004265921
0.0027573415
0.002760492
0.0027606249
0.0027632274
0.0027634802
0.0027655495
0.0027661283
0.002767773
0.0027683133
0.0027697172
0.0027702236
0.0027714356
0.0027718974
0.0027729968
0.0027734595
0.0027744514
0.0027748524
0.0027757121
0.0027760466
0.0027767849
0.0027770657
0.0027776822
0.0027779208
0.00277841
0.0027786142
0.002778997
0.0027791657
0.0027794945
0.0027796336
0.0027799132
0.0027800274
0.0027802624
0.0027803546
0.0027805474
0.0027806209
0.002780773
0.0027808294
0.0027809424
0.0027809825
0.0027810578
0.002781081
0.0027811195
0.0027811263
0.0027811285
0.0027811207
0.0027811018
0.0027810722
0.0027810295
0.0027809752
0.0027809063
0.0027808245
0.0027807266
0.0027806145
0.0027804846
0.0027803391
0.0027801738
0.0027799914
0.0027797874
0.0027795649
0.0027793191
0.0027790536
0.0027787638
0.0027784543
0.0027781204
0.0027777679
0.0027773916
0.0027769958
0.0027765729
0.0027761286
0.0027756566
0.0027751567
0.0027746257
0.002774066
0.0027734767
0.0027728469
0.0027721917
0.0027714866
0.0027707763
0.0027700449
0.0027690946
0.002768354
0.025490463
0.025495974
0.025500289
0.025505061
0.02550959
0.025514165
0.025518668
0.025523144
0.025527575
0.025531966
0.025536314
0.025540619
0.025544879
0.025549095
0.025553264
0.025557386
0.02556146
0.025565484
0.025569459
0.025573383
0.025577254
0.025581072
0.025584836
0.025588545
0.025592197
0.025595791
0.025599327
0.025602802
0.025606217
0.025609568
0.025612856
0.025616079
0.025619235
0.025622324
0.025625345
0.025628297
0.025631178
0.025633988
0.025636727
0.025639393
0.025641987
0.025644507
0.025646955
0.025649329
0.02565163
0.025653858
0.025656013
0.025658095
0.025660105
0.025662043
0.025663909
0.025665704
0.025667428
0.025669082
0.025670666
0.025672181
0.025673628
0.025675005
0.025676316
0.025677559
0.025678735
0.025679844
0.025680888
0.025681867
0.025682781
0.02568363
0.025684415
0.025685137
0.025685795
0.02568639
0.025686923
0.025687392
0.025687801
0.025688149
0.02568844
0.025688679
0.02568886
0.025688998
0.025689083
0.02568912
0.025689105
0.02376127
0.023766079
0.023769907
0.023774054
0.023778012
0.023781989
0.0237859
0.023789777
0.023793609
0.023797399
0.023801146
0.023804849
0.023808509
0.023812124
0.023815695
0.02381922
0.0238227
0.023826134
0.023829521
0.023832861
0.023836154
0.023839398
0.023842593
0.02384574
0.023848836
0.023851883
0.023854879
0.023857823
0.023860716
0.023863557
0.023866345
0.02386908
0.023871763
0.023874391
0.023876966
0.023879486
0.023881951
0.023884361
0.023886716
0.023889014
0.023891257
0.023893443
0.023895573
0.023897645
0.023899661
0.023901619
0.02390352
0.023905363
0.023907148
0.023908875
0.023910545
0.023912156
0.023913709
0.023915204
0.023916641
0.02391802
0.023919342
0.023920605
0.023921811
0.023922959
0.023924049
0.023925083
0.023926059
0.023926978
0.023927841
0.023928647
0.023929398
0.023930092
0.02393073
0.023931312
0.023931839
0.023932309
0.023932725
0.023933085
0.023933392
0.023933651
0.02393385
0.023934004
0.023934108
0.02393416
0.023934163
0.022146432
0.022150646
0.022153968
0.022157582
0.022161013
0.022164458
0.022167839
0.022171185
0.022174488
0.022177749
0.022180969
0.022184147
0.022187285
0.022190381
0.022193435
0.022196448
0.022199419
0.022202349
0.022205236
0.022208082
0.022210884
0.022213644
0.022216361
0.022219034
0.022221664
0.02222425
0.022226791
0.022229289
0.022231741
0.022234149
0.022236511
0.022238828
0.022241099
0.022243325
0.022245503
0.022247636
0.022249721
0.022251759
0.022253751
0.022255694
0.02225759
0.022259438
0.022261238
0.02226299
0.022264693
0.022266349
0.022267955
0.022269513
0.022271023
0.022272484
0.022273896
0.022275259
0.022276574
0.022277841
0.022279058
0.022280227
0.022281348
0.022282421
0.022283445
0.022284421
0.022285349
0.022286229
0.022287062
0.022287846
0.022288584
0.022289274
0.022289917
0.022290513
0.022291062
0.022291564
0.022292019
0.022292426
0.022292785
0.022293098
0.022293365
0.02229359
0.022293762
0.022293895
0.022293985
0.022294031
0.022294033
0.020638875
0.020642591
0.020645496
0.020648658
0.020651651
0.020654652
0.020657591
0.020660496
0.020663358
0.02066618
0.020668963
0.020671707
0.020674412
0.020677078
0.020679706
0.020682296
0.020684847
0.020687361
0.020689837
0.020692275
0.020694675
0.020697038
0.020699362
0.020701648
0.020703896
0.020706105
0.020708277
0.02071041
0.020712504
0.020714559
0.020716576
0.020718554
0.020720492
0.020722391
0.020724251
0.020726071
0.020727851
0.020729591
0.020731291
0.02073295
0.02073457
0.020736149
0.020737687
0.020739185
0.020740642
0.020742058
0.020743434
0.020744768
0.020746062
0.020747314
0.020748526
0.020749697
0.020750827
0.020751916
0.020752964
0.020753971
0.020754937
0.020755862
0.020756747
0.020757591
0.020758395
0.020759157
0.02075988
0.020760562
0.020761204
0.020761805
0.020762367
0.020762888
0.020763369
0.020763809
0.020764209
0.020764568
0.020764886
0.020765163
0.020765401
0.0207656
0.020765753
0.020765873
0.020765954
0.020765995
0.020765997
0.019231546
0.019234818
0.019237351
0.019240114
0.01924272
0.019245328
0.019247879
0.019250395
0.01925287
0.019255307
0.019257707
0.01926007
0.019262396
0.019264687
0.019266942
0.019269162
0.019271348
0.019273499
0.019275615
0.019277698
0.019279747
0.019281762
0.019283743
0.019285691
0.019287606
0.019289487
0.019291334
0.019293148
0.019294929
0.019296676
0.01929839
0.01930007
0.019301717
0.01930333
0.019304909
0.019306455
0.019307966
0.019309444
0.019310888
0.019312298
0.019313673
0.019315015
0.019316322
0.019317595
0.019318834
0.019320038
0.019321208
0.019322344
0.019323446
0.019324513
0.019325545
0.019326544
0.019327507
0.019328437
0.019329332
0.019330193
0.019331019
0.019331812
0.01933257
0.019333294
0.019333983
0.019334639
0.01933526
0.019335847
0.019336401
0.01933692
0.019337405
0.019337856
0.019338273
0.019338655
0.019339003
0.019339315
0.019339592
0.019339833
0.019340042
0.019340214
0.01934035
0.019340454
0.019340526
0.019340562
0.019340564
0.017917265
0.017920153
0.017922366
0.017924786
0.01792706
0.017929332
0.017931551
0.017933735
0.01793588
0.01793799
0.017940064
0.017942103
0.017944109
0.017946082
0.017948022
0.01794993
0.017951806
0.017953652
0.017955466
0.01795725
0.017959004
0.017960728
0.017962423
0.017964087
0.017965723
0.017967329
0.017968907
0.017970455
0.017971974
0.017973465
0.017974927
0.017976359
0.017977763
0.017979139
0.017980485
0.017981803
0.017983092
0.017984352
0.017985584
0.017986786
0.01798796
0.017989105
0.017990221
0.017991309
0.017992367
0.017993397
0.017994398
0.01799537
0.017996313
0.017997227
0.017998112
0.017998969
0.017999796
0.018000595
0.018001365
0.018002106
0.018002819
0.018003502
0.018004157
0.018004783
0.01800538
0.018005949
0.018006488
0.018006999
0.018007481
0.018007934
0.018008358
0.018008753
0.018009119
0.018009455
0.018009762
0.018010038
0.018010284
0.018010498
0.018010685
0.018010837
0.018010959
0.018011053
0.018011118
0.01801115
0.018011152
0.016689926
0.016692476
0.016694408
0.016696527
0.01669851
0.016700488
0.016702416
0.016704311
0.016706169
0.016707993
0.016709784
0.016711543
0.016713271
0.016714968
0.016716635
0.016718273
0.016719882
0.016721463
0.016723017
0.016724544
0.016726043
0.016727516
0.016728963
0.016730385
0.01673178
0.01673315
0.016734495
0.016735814
0.016737109
0.016738378
0.016739623
0.016740843
0.016742038
0.016743208
0.016744354
0.016745476
0.016746572
0.016747645
0.016748693
0.016749717
0.016750716
0.016751691
0.016752642
0.016753568
0.01675447
0.016755348
0.016756202
0.016757031
0.016757837
0.016758618
0.016759375
0.016760107
0.016760816
0.0167615
0.01676216
0.016762796
0.016763407
0.016763995
0.016764558
0.016765097
0.016765612
0.016766103
0.016766569
0.016767011
0.016767428
0.016767821
0.016768189
0.016768533
0.016768851
0.016769145
0.016769412
0.016769654
0.016769869
0.016770057
0.01677022
0.01677035
0.016770459
0.016770541
0.016770598
0.016770627
0.016770629
0.01554357
0.015545826
0.015547515
0.015549373
0.015551105
0.01555283
0.015554509
0.015556155
0.015557767
0.015559347
0.015560896
0.015562416
0.015563906
0.015565368
0.015566802
0.01556821
0.015569593
0.015570949
0.015572281
0.015573589
0.015574872
0.015576132
0.015577369
0.015578583
0.015579775
0.015580944
0.015582091
0.015583216
0.015584319
0.0155854
0.015586461
0.015587499
0.015588517
0.015589514
0.015590489
0.015591444
0.015592378
0.015593291
0.015594183
0.015595055
0.015595907