/*--------------------------------*- C++ -*----------------------------------*\
| =========                 |                                                 |
| \\      /  F ield         | OpenFOAM: The Open Source CFD Toolbox           |
|  \\    /   O peration     | Version:  v2006                                 |
|   \\  /    A nd           | Website:  www.openfoam.com                      |
|    \\/     M anipulation  |                                                 |
\*---------------------------------------------------------------------------*/
FoamFile
{
    version     2.0;
    format      ascii;
    class       volScalarField;
    location    "10000";
    object      Cy;
}
// * * * * * * * * * * * * * * * * * * * * * * * * * * * * * * * * * * * * * //

dimensions      [0 1 0 0 0 0 0];


internalField   nonuniform List<scalar> 
102907
(
-0.11091727
-0.10879362
-0.1067511
-0.10478326
-0.10288432
-0.10104911
-0.099272933
-0.097551515
-0.095880975
-0.094257757
-0.092678595
-0.091140482
-0.089640645
-0.08817651
-0.086745691
-0.085345971
-0.083975276
-0.082631668
-0.081313331
-0.080018558
-0.078745741
-0.077493363
-0.076259988
-0.075044253
-0.073844863
-0.072660585
-0.071490238
-0.070332694
-0.069186867
-0.068051715
-0.066926228
-0.065809431
-0.064700379
-0.063598148
-0.06250184
-0.061410575
-0.060323488
-0.059239728
-0.058158454
-0.057078833
-0.056000038
-0.054921242
-0.053841621
-0.052760348
-0.051676588
-0.050589501
-0.049498237
-0.04840193
-0.0472997
-0.046190649
-0.045073853
-0.043948368
-0.042813217
-0.041667392
-0.040509849
-0.039339505
-0.038155229
-0.036955842
-0.03574011
-0.034506738
-0.033254364
-0.031981551
-0.030686783
-0.029368451
-0.028024849
-0.02665416
-0.025254448
-0.023823636
-0.022359511
-0.020859685
-0.019321584
-0.017742435
-0.016119233
-0.014448711
-0.012727314
-0.010951155
-0.0091159728
-0.0072170727
-0.0052492654
-0.0032067843
-0.0010831871
-0.1108824
-0.10869546
-0.10660132
-0.10459155
-0.10265878
-0.10079654
-0.098999081
-0.097261266
-0.095578496
-0.093946619
-0.09236187
-0.090820822
-0.089320345
-0.087857564
-0.086429833
-0.085034714
-0.083669944
-0.08233342
-0.081023183
-0.079737404
-0.078474368
-0.077232462
-0.076010168
-0.074806051
-0.073618755
-0.072446986
-0.071289518
-0.070145176
-0.069012836
-0.067891419
-0.066779887
-0.065677234
-0.064582489
-0.063494707
-0.062412966
-0.061336367
-0.060264027
-0.059195077
-0.05812866
-0.057063927
-0.056000034
-0.054936141
-0.053871408
-0.052804991
-0.051736041
-0.050663702
-0.049587103
-0.048505364
-0.047417582
-0.046322838
-0.045220186
-0.044108655
-0.04298724
-0.041854902
-0.040710561
-0.039553095
-0.038381328
-0.037194034
-0.035989921
-0.034767629
-0.033525727
-0.032262694
-0.030976919
-0.029666687
-0.028330168
-0.026965404
-0.025570292
-0.024142569
-0.022679795
-0.021179328
-0.019638291
-0.018053554
-0.016421691
-0.014738937
-0.01300114
-0.011203699
-0.0093414833
-0.0074087482
-0.0053990122
-0.0033049117
-0.0011180107
-0.11084745
-0.10859705
-0.10645117
-0.10439937
-0.10243269
-0.10054336
-0.098724561
-0.096970309
-0.095275279
-0.093634722
-0.092044373
-0.090500382
-0.088999264
-0.087537839
-0.086113203
-0.084722698
-0.083363867
-0.082034444
-0.080732328
-0.079455565
-0.078202332
-0.076970924
-0.075759738
-0.074567269
-0.073392094
-0.072232866
-0.071088308
-0.0699572
-0.06883838
-0.067730733
-0.066633189
-0.065544715
-0.064464312
-0.063391013
-0.062323875
-0.061261979
-0.060204421
-0.059150317
-0.058098793
-0.057048984
-0.05600003
-0.054951077
-0.053901268
-0.052849744
-0.05179564
-0.050738083
-0.049676187
-0.04860905
-0.047535751
-0.04645535
-0.045366876
-0.044269333
-0.043161688
-0.042042869
-0.040911763
-0.039767206
-0.03860798
-0.037432807
-0.036240341
-0.035029158
-0.033797752
-0.032544522
-0.031267763
-0.029965651
-0.028636233
-0.027277407
-0.025886908
-0.024462279
-0.023000861
-0.021499752
-0.01995577
-0.018365432
-0.016724887
-0.015029872
-0.013275635
-0.011456858
-0.0095675441
-0.0076008913
-0.0055491243
-0.0034032784
-0.0011529188
-0.1108124
-0.1084984
-0.10630065
-0.10420672
-0.10220605
-0.10028955
-0.09844937
-0.09667864
-0.09497132
-0.093322062
-0.091726099
-0.090179158
-0.088677397
-0.087217332
-0.0857958
-0.084409918
-0.083057041
-0.081734737
-0.080440761
-0.079173037
-0.077929632
-0.076708746
-0.075508696
-0.074327902
-0.073164879
-0.072018223
-0.070886605
-0.069768764
-0.068663497
-0.067569654
-0.066486132
-0.065411871
-0.064345846
-0.063287066
-0.062234567
-0.061187408
-0.060144669
-0.059105448
-0.058068853
-0.057034004
-0.056000027
-0.054966049
-0.0539312
-0.052894606
-0.051855385
-0.050812647
-0.049765488
-0.048712989
-0.04765421
-0.046588186
-0.045513925
-0.044430405
-0.043336562
-0.042231296
-0.041113456
-0.039981841
-0.038835186
-0.037672165
-0.036491373
-0.035291326
-0.034070442
-0.03282704
-0.031559319
-0.030265347
-0.028943046
-0.027590174
-0.026204298
-0.024782771
-0.023322713
-0.021820959
-0.020274027
-0.018678073
-0.017028826
-0.015321518
-0.013550802
-0.011710637
-0.0097941579
-0.0077935045
-0.0056996035
-0.0035018855
-0.0011879119
-0.11077727
-0.1083995
-0.10614976
-0.1040136
-0.10197885
-0.10003512
-0.098173503
-0.096386255
-0.094666615
-0.093008635
-0.091407044
-0.089857146
-0.088354741
-0.086896039
-0.085477617
-0.084096372
-0.082749463
-0.081434295
-0.08014848
-0.078889815
-0.077656262
-0.076445925
-0.075257038
-0.074087948
-0.072937107
-0.071803053
-0.070684409
-0.069579867
-0.068488186
-0.06740818
-0.066338715
-0.065278702
-0.06422709
-0.063182864
-0.062145039
-0.061112654
-0.060084771
-0.059060469
-0.05803884
-0.057018988
-0.056000023
-0.054981058
-0.053961206
-0.052939578
-0.051915276
-0.050887393
-0.049855009
-0.048817184
-0.047772959
-0.046721348
-0.045661335
-0.044591871
-0.043511866
-0.042420186
-0.041315645
-0.040197002
-0.039062949
-0.037912109
-0.036743022
-0.035554137
-0.034343802
-0.033110251
-0.03185159
-0.030565777
-0.029250613
-0.027903708
-0.026522467
-0.02510405
-0.023645354
-0.022142954
-0.020593064
-0.01899148
-0.017333509
-0.01561388
-0.013826643
-0.011965038
-0.010021327
-0.00798659
-0.0058504518
-0.0036007343
-0.0012229904
-0.11074205
-0.10830036
-0.1059985
-0.10382001
-0.10175109
-0.099780066
-0.097896958
-0.096093151
-0.094361161
-0.092694437
-0.091087204
-0.089534343
-0.088031291
-0.086573955
-0.085158653
-0.083782054
-0.082441129
-0.081133114
-0.079855479
-0.078605897
-0.07738222
-0.076182458
-0.075004761
-0.073847405
-0.072708775
-0.071587354
-0.070481715
-0.069390505
-0.068312443
-0.067246309
-0.066190935
-0.065145205
-0.064108042
-0.063078406
-0.062055291
-0.061037717
-0.060024726
-0.059015379
-0.058008754
-0.057003936
-0.05600002
-0.054996104
-0.053991286
-0.05298466
-0.051975314
-0.050962323
-0.049944749
-0.048921635
-0.047892
-0.046854837
-0.045809107
-0.044753734
-0.0436876
-0.042609539
-0.041518331
-0.040412692
-0.039291273
-0.038152644
-0.036995289
-0.035817594
-0.034617834
-0.033394158
-0.032144579
-0.030866947
-0.029558935
-0.028218013
-0.026841418
-0.025426119
-0.023968788
-0.022465741
-0.020912885
-0.019305659
-0.017638942
-0.015906961
-0.014103163
-0.012220065
-0.010249055
-0.0081801502
-0.0060016708
-0.003699826
-0.0012581547
-0.11070675
-0.10820098
-0.10584687
-0.10362593
-0.10152277
-0.099524382
-0.09761973
-0.095799324
-0.094054954
-0.092379465
-0.090766576
-0.089210743
-0.087707044
-0.086251078
-0.084838902
-0.083466961
-0.082132034
-0.080831191
-0.079561757
-0.07832128
-0.077107503
-0.075918342
-0.074751863
-0.073606269
-0.07247988
-0.071371124
-0.070278522
-0.069200677
-0.068136268
-0.067084039
-0.066042792
-0.065011379
-0.0639887
-0.062973691
-0.061965322
-0.060962595
-0.059964533
-0.058970179
-0.057978593
-0.056988846
-0.056000016
-0.055011187
-0.05402144
-0.053029854
-0.0520355
-0.051037438
-0.050034711
-0.049026343
-0.048011334
-0.046988655
-0.045957243
-0.044915997
-0.043863768
-0.04279936
-0.041721516
-0.040628914
-0.039520159
-0.038393772
-0.037248179
-0.036081701
-0.034892541
-0.033678766
-0.032438291
-0.031168859
-0.029868017
-0.028533093
-0.027161155
-0.025748982
-0.02429302
-0.022789324
-0.021233495
-0.019620611
-0.017945128
-0.016200764
-0.014380364
-0.01247572
-0.010477345
-0.0083741875
-0.0061532625
-0.0037991617
-0.0012934052
-0.11067136
-0.10810135
-0.10569486
-0.10343138
-0.10129388
-0.099268066
-0.097341818
-0.095504771
-0.09374799
-0.092063714
-0.090445156
-0.088886344
-0.087381995
-0.085927403
-0.084518361
-0.08315109
-0.081822176
-0.080528521
-0.079267308
-0.078035959
-0.076832107
-0.075653573
-0.074498339
-0.073364536
-0.07225042
-0.07115436
-0.070074826
-0.069010379
-0.067959657
-0.066921368
-0.065894282
-0.064877223
-0.063869064
-0.062868717
-0.061875131
-0.060887288
-0.059904191
-0.058924866
-0.057948357
-0.056973719
-0.056000013
-0.055026307
-0.054051669
-0.05307516
-0.052095836
-0.051112739
-0.050124895
-0.04913131
-0.048130963
-0.047122804
-0.046105746
-0.04507866
-0.044040371
-0.04298965
-0.041925203
-0.04084567
-0.039749611
-0.038635495
-0.037501693
-0.03634646
-0.035167927
-0.033964076
-0.032732728
-0.031471517
-0.030177864
-0.028848951
-0.027481683
-0.026072642
-0.024618052
-0.023113706
-0.021554897
-0.019936342
-0.01825207
-0.016495293
-0.01465825
-0.012732007
-0.010706198
-0.0085687042
-0.0063052287
-0.0038987426
-0.0013287424
-0.11063587
-0.10800147
-0.10554247
-0.10323634
-0.10106443
-0.099011114
-0.097063217
-0.095209489
-0.093440266
-0.091747181
-0.090122939
-0.088561141
-0.087056142
-0.085602926
-0.084197026
-0.082834437
-0.08151155
-0.080225102
-0.07897213
-0.077749931
-0.076556029
-0.075388148
-0.074244188
-0.073122205
-0.072020391
-0.070937058
-0.069870626
-0.06881961
-0.067782609
-0.066758294
-0.065745404
-0.064742735
-0.063749131
-0.062763483
-0.061784717
-0.060811794
-0.059843699
-0.058879442
-0.057918047
-0.056958554
-0.05600001
-0.055041465
-0.054081972
-0.053120578
-0.05215632
-0.051188226
-0.050215303
-0.049236537
-0.048250889
-0.047257286
-0.046254616
-0.045241726
-0.044217412
-0.043180411
-0.042129395
-0.041062964
-0.039979631
-0.038877817
-0.037755835
-0.036611876
-0.035443995
-0.034250094
-0.033027896
-0.031774925
-0.030488478
-0.029165592
-0.027803004
-0.026397105
-0.024943891
-0.023438892
-0.021877096
-0.020252856
-0.018559773
-0.016790551
-0.014936825
-0.012988929
-0.010935619
-0.0087637028
-0.0064575713
-0.0039985701
-0.0013641666
-0.1106003
-0.10790135
-0.10538971
-0.10304082
-0.1008344
-0.098753524
-0.096783923
-0.094913472
-0.093131777
-0.091429862
-0.089799922
-0.088235131
-0.086729479
-0.085277643
-0.083874892
-0.082516996
-0.081200152
-0.07992093
-0.07867622
-0.077463193
-0.076279265
-0.075122064
-0.073989406
-0.072879273
-0.071789791
-0.070719217
-0.069665919
-0.068628368
-0.067605121
-0.066594816
-0.065596157
-0.064607912
-0.0636289
-0.062657987
-0.061694078
-0.060736113
-0.059783058
-0.058833905
-0.057887662
-0.056943352
-0.056000006
-0.055056661
-0.054112351
-0.053166108
-0.052216955
-0.0512639
-0.050305935
-0.049342026
-0.048371113
-0.047392101
-0.046403856
-0.045405198
-0.044394892
-0.043371646
-0.042334094
-0.041280797
-0.040210223
-0.039120742
-0.038010609
-0.036877951
-0.03572075
-0.034536822
-0.033323796
-0.032079086
-0.030799864
-0.02948302
-0.028125124
-0.026722374
-0.025270539
-0.023764886
-0.022200095
-0.020570155
-0.01886824
-0.017086544
-0.015216092
-0.013246489
-0.011165609
-0.0089591857
-0.0066102922
-0.0040986453
-0.0013996784
-0.11056464
-0.10780097
-0.10523656
-0.10284481
-0.1006038
-0.098495292
-0.096503934
-0.094616719
-0.09282252
-0.091111752
-0.089476101
-0.087908308
-0.086402002
-0.08495155
-0.083551957
-0.082198766
-0.08088798
-0.079616
-0.078379572
-0.077175741
-0.076001812
-0.074855318
-0.073733989
-0.072635735
-0.071558617
-0.070500834
-0.069460703
-0.06843665
-0.067427192
-0.06643093
-0.065446539
-0.064472754
-0.063508371
-0.062552229
-0.061603214
-0.060660243
-0.059722265
-0.058788254
-0.057857201
-0.056928112
-0.056000003
-0.055071894
-0.054142806
-0.053211752
-0.052277741
-0.051339763
-0.050396792
-0.049447777
-0.048491635
-0.047527252
-0.046553468
-0.045569076
-0.044572815
-0.043563357
-0.042539303
-0.041499172
-0.040441389
-0.039364271
-0.038266017
-0.037144688
-0.035998193
-0.034824264
-0.033620433
-0.032384005
-0.031112025
-0.029801238
-0.028448046
-0.027048452
-0.025598
-0.024091692
-0.022523898
-0.020888245
-0.019177475
-0.017383273
-0.015496054
-0.013504691
-0.011396172
-0.0091551552
-0.0067633932
-0.0041989694
-0.0014352782
-0.11052889
-0.10770034
-0.10508303
-0.10264831
-0.10037263
-0.098236415
-0.096223246
-0.094319224
-0.09251249
-0.090792848
-0.089151471
-0.08758067
-0.086073708
-0.084624644
-0.083228215
-0.081879741
-0.080575028
-0.079310308
-0.078082184
-0.076887572
-0.075723667
-0.074587905
-0.073477935
-0.07239159
-0.071326866
-0.070281905
-0.069254974
-0.068244453
-0.067248818
-0.066266636
-0.065296547
-0.064337259
-0.06338754
-0.062446208
-0.061512123
-0.060584184
-0.059661321
-0.05874249
-0.057826664
-0.056912834
-0.056
-0.055087166
-0.054173336
-0.05325751
-0.052338679
-0.051415816
-0.050487877
-0.049553792
-0.048612459
-0.04766274
-0.046703453
-0.045733363
-0.044751181
-0.043755546
-0.042745024
-0.041718093
-0.040673132
-0.039608408
-0.038522062
-0.037412091
-0.036276329
-0.035112424
-0.033917811
-0.032689685
-0.031424965
-0.030120251
-0.028771775
-0.027375345
-0.025926278
-0.024419314
-0.02284851
-0.021207129
-0.019487482
-0.017680743
-0.015776714
-0.013763537
-0.01162731
-0.0093516138
-0.0069168763
-0.0042995437
-0.0014709663
-0.11049305
-0.10759946
-0.10492912
-0.10245132
-0.10014088
-0.09797689
-0.095941855
-0.094020985
-0.092201685
-0.090473146
-0.088826029
-0.087252212
-0.085744592
-0.084296919
-0.082903664
-0.081559918
-0.080261292
-0.079003852
-0.077784052
-0.076598681
-0.075444826
-0.074319824
-0.07322124
-0.072146834
-0.071094536
-0.070062429
-0.069048731
-0.068051775
-0.067069998
-0.06610193
-0.06514618
-0.064201425
-0.063266408
-0.062339921
-0.061420804
-0.060507935
-0.059600225
-0.058696611
-0.057796051
-0.056897518
-0.055999997
-0.055102476
-0.054203943
-0.053303383
-0.052399769
-0.051492058
-0.050579189
-0.049660072
-0.048733585
-0.047798568
-0.046853813
-0.045898062
-0.044929994
-0.043948217
-0.04295126
-0.041937561
-0.040905454
-0.039853156
-0.038778748
-0.037680164
-0.036555161
-0.035401304
-0.034215933
-0.032996131
-0.031738689
-0.030440062
-0.029096313
-0.027703056
-0.026255379
-0.024747755
-0.023173934
-0.021526811
-0.019798265
-0.017978957
-0.016058078
-0.01402303
-0.011859027
-0.009548564
-0.0070707433
-0.0044003695
-0.0015067433
-0.11045712
-0.10749833
-0.10477482
-0.10225384
-0.099908545
-0.097716714
-0.095659758
-0.093721998
-0.0918901
-0.090152642
-0.08849977
-0.08692293
-0.085414651
-0.083968371
-0.082578298
-0.081239292
-0.07994677
-0.078696627
-0.077485171
-0.076309066
-0.075165285
-0.074051071
-0.072963902
-0.071901464
-0.070861622
-0.069842403
-0.068841971
-0.067858614
-0.06689073
-0.065936812
-0.064995435
-0.064065251
-0.063144972
-0.062233368
-0.061329256
-0.060431495
-0.059538975
-0.058650617
-0.057765361
-0.056882164
-0.055999994
-0.055117824
-0.054234627
-0.053349371
-0.052461012
-0.051568492
-0.050670731
-0.049766619
-0.048855015
-0.047934736
-0.047004551
-0.046063174
-0.045109255
-0.04414137
-0.043158013
-0.04215758
-0.04113836
-0.040098518
-0.039036079
-0.037948909
-0.036834693
-0.03569091
-0.034514803
-0.033303345
-0.0320532
-0.030760675
-0.029421666
-0.028031589
-0.026585304
-0.025077021
-0.023500174
-0.021847295
-0.020109828
-0.01827792
-0.016340147
-0.014283175
-0.012091325
-0.0097460082
-0.0072249961
-0.0045014479
-0.0015426096
-0.1104211
-0.10739694
-0.10462013
-0.10205586
-0.099675626
-0.097455883
-0.095376951
-0.093422258
-0.091577731
-0.089831332
-0.088172691
-0.086592819
-0.08508388
-0.083638998
-0.082252114
-0.08091786
-0.079631457
-0.07838863
-0.07718554
-0.076018723
-0.074885041
-0.073781641
-0.072705916
-0.071655477
-0.070628123
-0.069621823
-0.06863469
-0.067664968
-0.066711011
-0.065771278
-0.064844312
-0.063928734
-0.06302323
-0.062126547
-0.061237478
-0.060354863
-0.059477572
-0.058604508
-0.057734594
-0.056866771
-0.055999991
-0.055133211
-0.054265388
-0.053395474
-0.052522409
-0.051645119
-0.050762503
-0.049873434
-0.04897675
-0.048071246
-0.047155667
-0.0462287
-0.045288967
-0.04433501
-0.043365286
-0.042378153
-0.041371851
-0.040344497
-0.039294056
-0.038218329
-0.037114927
-0.035981244
-0.034814425
-0.033611332
-0.032368501
-0.031082095
-0.029747837
-0.028360948
-0.02691606
-0.025407114
-0.023827235
-0.022168584
-0.020422174
-0.018577634
-0.016622925
-0.014543974
-0.012324207
-0.0099439489
-0.0073796368
-0.0046027803
-0.0015785657
-0.11038498
-0.1072953
-0.10446505
-0.10185737
-0.09944212
-0.097194394
-0.095093431
-0.093121763
-0.091264575
-0.089509212
-0.087844787
-0.086261877
-0.084752275
-0.083308794
-0.081925107
-0.080595618
-0.079315349
-0.078079856
-0.076885153
-0.075727647
-0.074604091
-0.073511533
-0.07244728
-0.07140887
-0.070394036
-0.069400688
-0.068426888
-0.067470833
-0.06653084
-0.065605328
-0.064692808
-0.063791873
-0.062901182
-0.062019456
-0.061145469
-0.060278037
-0.059416014
-0.058558282
-0.057703749
-0.056851339
-0.055999988
-0.055148636
-0.054296226
-0.053441693
-0.052583962
-0.051721938
-0.050854506
-0.049980518
-0.049098792
-0.048208101
-0.047307165
-0.046394645
-0.045469132
-0.044529138
-0.043573082
-0.042599281
-0.041605931
-0.040591096
-0.039552684
-0.038488429
-0.037395869
-0.03627231
-0.035114802
-0.033920095
-0.032684598
-0.031404325
-0.030074831
-0.028691138
-0.02724765
-0.02573804
-0.02415512
-0.022490684
-0.020735308
-0.018878104
-0.016906416
-0.01480543
-0.012557676
-0.010142389
-0.0075346672
-0.0047043679
-0.0016146119
-0.11034878
-0.10719339
-0.10430958
-0.10165839
-0.099208023
-0.096932244
-0.094809195
-0.092820508
-0.090950627
-0.089186277
-0.087516054
-0.085930097
-0.084419832
-0.082977756
-0.081597274
-0.080272561
-0.078998442
-0.077770302
-0.076584007
-0.075435837
-0.074322431
-0.073240741
-0.072187991
-0.071161639
-0.070159357
-0.069178993
-0.06821856
-0.067276208
-0.066350213
-0.065438958
-0.064540922
-0.063654666
-0.062778825
-0.061912095
-0.061053228
-0.060201018
-0.0593543
-0.05851194
-0.057672827
-0.056835869
-0.055999985
-0.055164101
-0.054327143
-0.05348803
-0.052645669
-0.051798951
-0.050946741
-0.050087873
-0.049221143
-0.048345301
-0.047459045
-0.046561008
-0.045649752
-0.044723756
-0.043781403
-0.042820968
-0.041840603
-0.040838319
-0.039811966
-0.038759212
-0.03767752
-0.036564112
-0.035415938
-0.034229639
-0.033001494
-0.03172737
-0.030402651
-0.029022162
-0.027580078
-0.026069803
-0.024483835
-0.022813598
-0.021049233
-0.019179333
-0.017190624
-0.015067547
-0.012791736
-0.01034133
-0.0076900892
-0.004806212
-0.0016507488
-0.11031248
-0.10709123
-0.10415371
-0.1014589
-0.098973333
-0.09666943
-0.094524238
-0.092518489
-0.090635883
-0.088862524
-0.087186488
-0.085597478
-0.084086546
-0.082645879
-0.081268611
-0.079948686
-0.078680732
-0.077459963
-0.076282097
-0.075143286
-0.074040058
-0.072969264
-0.071928044
-0.070913783
-0.069924083
-0.068956738
-0.068009705
-0.06708109
-0.066169129
-0.065272167
-0.064388651
-0.063517112
-0.062656159
-0.061804463
-0.060960753
-0.060123803
-0.05929243
-0.05846548
-0.057641826
-0.056820359
-0.055999982
-0.055179605
-0.054358138
-0.053534484
-0.052707534
-0.05187616
-0.05103921
-0.0501955
-0.049343803
-0.048482849
-0.04761131
-0.046727793
-0.04583083
-0.044918867
-0.043990251
-0.043043217
-0.042075869
-0.041086167
-0.040071904
-0.039030681
-0.037959885
-0.036856653
-0.035717838
-0.034539967
-0.033319193
-0.032051233
-0.030731301
-0.029354025
-0.027913348
-0.026402406
-0.024813382
-0.023137331
-0.021363954
-0.019481326
-0.017475552
-0.015330329
-0.013026388
-0.010540775
-0.0078459049
-0.0049083139
-0.0016869767
-0.11027609
-0.10698881
-0.10399745
-0.1012589
-0.098738047
-0.096405948
-0.094238557
-0.092215704
-0.09032034
-0.088537949
-0.086856085
-0.085264013
-0.083752414
-0.082313158
-0.080939112
-0.079623988
-0.078362215
-0.077148837
-0.075979422
-0.074849993
-0.073756967
-0.072697098
-0.071667438
-0.070665297
-0.069688213
-0.068733917
-0.067800319
-0.066885477
-0.065987584
-0.065104952
-0.064235993
-0.063379209
-0.062533181
-0.061696557
-0.060868043
-0.060046393
-0.059230403
-0.058418903
-0.057610747
-0.05680481
-0.055999979
-0.055195149
-0.054389212
-0.053581055
-0.052769555
-0.051953565
-0.051131914
-0.0503034
-0.049466775
-0.048620746
-0.047763962
-0.046895001
-0.046012368
-0.045114474
-0.04419963
-0.04326603
-0.042311733
-0.041334646
-0.040332503
-0.03930284
-0.038242967
-0.037149937
-0.036020504
-0.034851083
-0.033637699
-0.032375919
-0.031060787
-0.029686731
-0.028247465
-0.026735853
-0.025143766
-0.023461885
-0.021679474
-0.019784086
-0.017761203
-0.015593777
-0.013261636
-0.010740726
-0.0080021163
-0.0050106749
-0.0017232963
-0.1102396
-0.10688613
-0.10384079
-0.1010584
-0.09850216
-0.096141795
-0.093952148
-0.091912147
-0.090003993
-0.088212547
-0.086524841
-0.084929699
-0.083417432
-0.081979591
-0.080608775
-0.079298464
-0.078042888
-0.076836918
-0.075675975
-0.074555953
-0.073473156
-0.072424239
-0.071406168
-0.070416179
-0.069451742
-0.06851053
-0.0675904
-0.066689366
-0.065805578
-0.064937312
-0.064082947
-0.063240955
-0.06240989
-0.061588377
-0.060775097
-0.059968786
-0.059168219
-0.058372207
-0.057579589
-0.056789222
-0.055999977
-0.055210732
-0.054420364
-0.053627746
-0.052831734
-0.052031166
-0.051224854
-0.050411574
-0.04959006
-0.048758995
-0.047917002
-0.047062635
-0.046194368
-0.045310579
-0.044409542
-0.043489411
-0.042548197
-0.041583757
-0.040593765
-0.039575691
-0.03852677
-0.037443967
-0.036323941
-0.035162992
-0.033957015
-0.032701431
-0.031391111
-0.030020285
-0.028582432
-0.02707015
-0.025474992
-0.023787266
-0.021995797
-0.020087616
-0.018047582
-0.015857897
-0.013497483
-0.010941187
-0.0081587251
-0.0051132962
-0.0017597078
-0.11020302
-0.10678318
-0.10368373
-0.10085738
-0.098265672
-0.095876967
-0.093665008
-0.091607815
-0.089686839
-0.087886315
-0.086192752
-0.084594532
-0.083081594
-0.081645173
-0.080277595
-0.078972109
-0.077722745
-0.076524203
-0.075371754
-0.074261163
-0.07318862
-0.072150683
-0.071144232
-0.070166425
-0.069214667
-0.068286573
-0.067379946
-0.066492754
-0.065623108
-0.064769244
-0.06392951
-0.063102348
-0.062286285
-0.061479921
-0.060681915
-0.059890981
-0.059105876
-0.058325392
-0.057548351
-0.056773593
-0.055999974
-0.055226354
-0.054451597
-0.053674555
-0.052894072
-0.052108966
-0.051318032
-0.050520025
-0.049713659
-0.048897596
-0.048070433
-0.047230697
-0.046376832
-0.045507184
-0.04461999
-0.043713361
-0.042785265
-0.041833503
-0.040855694
-0.039849239
-0.038811297
-0.037738749
-0.036628152
-0.035475697
-0.034277147
-0.033027775
-0.031722279
-0.030354689
-0.028918255
-0.027405301
-0.025807063
-0.024113478
-0.022312928
-0.020391922
-0.018334692
-0.01612269
-0.013733932
-0.011142159
-0.0083157336
-0.0052161791
-0.0017962119
-0.0006525246
-0.0019601387
-0.0032728732
-0.0045906935
-0.0059135545
-0.007241401
-0.0085741695
-0.0099117883
-0.011254178
-0.012601251
-0.013952916
-0.015309074
-0.01666962
-0.018034444
-0.019403432
-0.020776464
-0.022153417
-0.023534163
-0.02491857
-0.026306504
-0.027697826
-0.029092393
-0.030490062
-0.031890684
-0.033294111
-0.034700188
-0.036108761
-0.037519673
-0.038932766
-0.040347878
-0.041764846
-0.043183507
-0.044603696
-0.046025245
-0.047447987
-0.048871754
-0.050296376
-0.051721682
-0.053147502
-0.054573665
-0.056
-0.057426335
-0.058852498
-0.060278318
-0.061703624
-0.063128246
-0.064552013
-0.065974755
-0.067396304
-0.068816493
-0.070235154
-0.071652122
-0.073067234
-0.074480327
-0.075891239
-0.077299812
-0.078705889
-0.080109316
-0.081509938
-0.082907607
-0.084302174
-0.085693496
-0.08708143
-0.088465837
-0.089846583
-0.091223536
-0.092596568
-0.093965556
-0.09533038
-0.096690926
-0.098047084
-0.099398749
-0.10074582
-0.10208821
-0.10342583
-0.1047586
-0.10608645
-0.10740931
-0.10872713
-0.11003986
-0.11134748
-0.00066591077
-0.0019989483
-0.0033345014
-0.0046727125
-0.0060136984
-0.007357553
-0.00870435
-0.010054144
-0.011406972
-0.012762856
-0.014121804
-0.015483812
-0.016848862
-0.018216926
-0.019587968
-0.020961939
-0.022338785
-0.023718441
-0.025100837
-0.026485896
-0.027873535
-0.029263662
-0.030656185
-0.032051002
-0.03344801
-0.0348471
-0.03624816
-0.037651074
-0.039055722
-0.040461981
-0.041869728
-0.043278834
-0.044689169
-0.046100602
-0.047513
-0.048926227
-0.050340147
-0.051754623
-0.053169516
-0.054584688
-0.056
-0.057415312
-0.058830484
-0.060245377
-0.061659853
-0.063073773
-0.064487
-0.065899398
-0.067310831
-0.068721166
-0.070130272
-0.071538019
-0.072944278
-0.074348926
-0.07575184
-0.0771529
-0.07855199
-0.079948998
-0.081343815
-0.082736338
-0.084126465
-0.085514104
-0.086899163
-0.088281559
-0.089661215
-0.091038061
-0.092412032
-0.093783074
-0.095151138
-0.096516188
-0.097878196
-0.099237144
-0.10059303
-0.10194586
-0.10329565
-0.10464245
-0.1059863
-0.10732729
-0.1086655
-0.11000105
-0.11133409
-0.0006798324
-0.0020393105
-0.0033985949
-0.0047580122
-0.0061178482
-0.0074783514
-0.0088397379
-0.010202194
-0.011565878
-0.012930925
-0.014297448
-0.01566554
-0.017035274
-0.018406708
-0.019779886
-0.021154833
-0.022531567
-0.02391009
-0.025290395
-0.026672464
-0.028056272
-0.029441782
-0.030828952
-0.032217732
-0.033608065
-0.034999889
-0.036393135
-0.03778773
-0.039183595
-0.040580649
-0.041978805
-0.043377973
-0.044778061
-0.046178974
-0.047580613
-0.048982879
-0.050385669
-0.051788882
-0.053192411
-0.054596152
-0.056
-0.057403848
-0.058807589
-0.060211118
-0.061614331
-0.063017121
-0.064419387
-0.065821026
-0.067221939
-0.068622027
-0.070021195
-0.071419351
-0.072816405
-0.07421227
-0.075606865
-0.077000111
-0.078391935
-0.079782268
-0.081171048
-0.082558218
-0.083943728
-0.085327536
-0.086709605
-0.08808991
-0.089468433
-0.090845167
-0.092220114
-0.093593292
-0.094964726
-0.09633446
-0.097702552
-0.099069075
-0.10043412
-0.10179781
-0.10316026
-0.10452165
-0.10588215
-0.10724199
-0.10860141
-0.10996069
-0.11132017
-0.00069431092
-0.0020812871
-0.0034652522
-0.0048467242
-0.0062261641
-0.0076039818
-0.0089805414
-0.010356166
-0.01173114
-0.013105717
-0.014480118
-0.015854537
-0.017229142
-0.018604082
-0.01997948
-0.021355443
-0.02273206
-0.024109405
-0.025487534
-0.026866495
-0.028246318
-0.029627026
-0.03100863
-0.032391131
-0.033774523
-0.035158789
-0.036543909
-0.037929852
-0.039316583
-0.040704063
-0.042092244
-0.043481078
-0.044870509
-0.04626048
-0.04765093
-0.049041797
-0.050433013
-0.051824511
-0.053216222
-0.054608075
-0.056
-0.057391925
-0.058783778
-0.060175489
-0.061566987
-0.062958203
-0.06434907
-0.06573952
-0.067129491
-0.068518922
-0.069907756
-0.071295937
-0.072683417
-0.074070148
-0.075456091
-0.076841211
-0.078225477
-0.079608869
-0.08099137
-0.082372974
-0.083753682
-0.085133505
-0.086512466
-0.087890595
-0.08926794
-0.090644557
-0.09202052
-0.093395918
-0.094770858
-0.096145463
-0.097519882
-0.098894283
-0.10026886
-0.10164383
-0.10301946
-0.10439602
-0.10577384
-0.10715328
-0.10853475
-0.10991871
-0.11130569
-0.00070936859
-0.0021249429
-0.0035345758
-0.0049389847
-0.0063388129
-0.0077346377
-0.0091269774
-0.010516297
-0.011903014
-0.013287501
-0.014670094
-0.016051094
-0.017430766
-0.01880935
-0.020187058
-0.021564078
-0.022940574
-0.024316692
-0.025692559
-0.027068286
-0.028443966
-0.02981968
-0.031195495
-0.032571466
-0.033947638
-0.035324045
-0.036700713
-0.038077658
-0.039454891
-0.040832413
-0.042210221
-0.043588306
-0.044966654
-0.046345246
-0.04772406
-0.049103071
-0.050482249
-0.051861565
-0.053240984
-0.054620474
-0.056
-0.057379526
-0.058759016
-0.060138435
-0.061517751
-0.062896929
-0.06427594
-0.065654754
-0.067033346
-0.068411694
-0.069789779
-0.071167587
-0.072545109
-0.073922342
-0.075299287
-0.076675955
-0.078052362
-0.079428534
-0.080804505
-0.08218032
-0.083556034
-0.084931714
-0.086307441
-0.087683308
-0.089059426
-0.090435922
-0.091812942
-0.09319065
-0.094569234
-0.095948906
-0.097329906
-0.098712499
-0.10009699
-0.1014837
-0.10287302
-0.10426536
-0.10566119
-0.10706102
-0.10846542
-0.10987506
-0.11129063
-0.00072502859
-0.002170345
-0.0036066726
-0.0050349358
-0.0064559678
-0.00787052
-0.009279271
-0.010682834
-0.012081762
-0.013476556
-0.01486767
-0.016255513
-0.017640454
-0.019022829
-0.02040294
-0.021781057
-0.023157427
-0.024532271
-0.025905785
-0.027278149
-0.02864952
-0.030020039
-0.031389834
-0.032759014
-0.034127677
-0.035495911
-0.036863789
-0.038231377
-0.03959873
-0.040965897
-0.042332917
-0.043699823
-0.045066645
-0.046433403
-0.047800115
-0.049166796
-0.050533455
-0.051900101
-0.053266738
-0.05463337
-0.056
-0.05736663
-0.058733262
-0.060099899
-0.061466545
-0.062833204
-0.064199885
-0.065566597
-0.066933355
-0.068300177
-0.069667083
-0.071034103
-0.07240127
-0.073768623
-0.075136211
-0.076504089
-0.077872323
-0.079240986
-0.080610166
-0.081979961
-0.08335048
-0.084721851
-0.086094215
-0.087467729
-0.088842573
-0.090218943
-0.09159706
-0.092977171
-0.094359546
-0.095744487
-0.09713233
-0.098523444
-0.099918238
-0.10131717
-0.10272073
-0.10412948
-0.10554403
-0.10696506
-0.10839333
-0.10982965
-0.11127497
-0.000741315
-0.0022175632
-0.0036816532
-0.005134725
-0.0065778091
-0.0080118378
-0.0094376566
-0.010856032
-0.012267661
-0.013673174
-0.015073149
-0.01646811
-0.017858531
-0.019244848
-0.020627457
-0.022006716
-0.023382955
-0.024756473
-0.02612754
-0.027496406
-0.028863295
-0.030228413
-0.031591946
-0.032954063
-0.034314918
-0.035674651
-0.037033388
-0.038391244
-0.039748323
-0.04110472
-0.04246052
-0.043815801
-0.045170635
-0.046525085
-0.047879212
-0.04923307
-0.050586709
-0.051940178
-0.053293521
-0.054646781
-0.056
-0.057353219
-0.058706479
-0.060059822
-0.061413291
-0.06276693
-0.064120788
-0.065474915
-0.066829365
-0.068184199
-0.06953948
-0.07089528
-0.072251677
-0.073608756
-0.074966612
-0.076325349
-0.077685082
-0.079045937
-0.080408054
-0.081771587
-0.083136705
-0.084503594
-0.08587246
-0.087243527
-0.088617045
-0.089993284
-0.091372543
-0.092755152
-0.094141469
-0.09553189
-0.096926851
-0.098326826
-0.099732339
-0.10114397
-0.10256234
-0.10398816
-0.10542219
-0.10686527
-0.10831835
-0.10978244
-0.11125868