/*--------------------------------*- C++ -*----------------------------------*\
| =========                 |                                                 |
| \\      /  F ield         | OpenFOAM: The Open Source CFD Toolbox           |
|  \\    /   O peration     | Version:  v2006                                 |
|   \\  /    A nd           | Website:  www.openfoam.com                      |
|    \\/     M anipulation  |                                                 |
\*---------------------------------------------------------------------------*/
FoamFile
{
    version     2.0;
    format      ascii;
    class       volScalarField;
    location    "10000";
    object      k;
}
// * * * * * * * * * * * * * * * * * * * * * * * * * * * * * * * * * * * * * //

dimensions      [0 2 -2 0 0 0 0];


internalField   nonuniform List<scalar> 
102907
(
4.5077074e-10
8.3979366e-10
4.2725163e-09
1.0382392e-08
1.6130455e-08
1.9974052e-08
2.2004663e-08
2.2876708e-08
2.3169293e-08
2.3230728e-08
2.3224332e-08
2.3209332e-08
2.3199873e-08
2.3195734e-08
2.3194419e-08
2.3194542e-08
2.3194973e-08
2.3195211e-08
2.3195171e-08
2.3194915e-08
2.3194636e-08
2.3194369e-08
2.3194122e-08
2.3193936e-08
2.3193845e-08
2.3193787e-08
2.319371e-08
2.3193614e-08
2.3193507e-08
2.3193401e-08
2.3193291e-08
2.319318e-08
2.3193064e-08
2.3192946e-08
2.3192821e-08
2.3192691e-08
2.319255e-08
2.3192408e-08
2.3192256e-08
2.319209e-08
2.3191921e-08
2.3191746e-08
2.3191565e-08
2.3191377e-08
2.3191182e-08
2.3190978e-08
2.3190765e-08
2.3190546e-08
2.319032e-08
2.3190086e-08
2.3189843e-08
2.3189589e-08
2.3189322e-08
2.3189041e-08
2.3188744e-08
2.3188432e-08
2.3188105e-08
2.3187769e-08
2.3187425e-08
2.3187078e-08
2.3186727e-08
2.3186376e-08
2.3186021e-08
2.3185663e-08
2.3185301e-08
2.3184934e-08
2.318456e-08
2.3184179e-08
2.3183788e-08
2.3183387e-08
2.3182972e-08
2.3182546e-08
2.3182108e-08
2.3181664e-08
2.3181215e-08
2.3180769e-08
2.3180318e-08
2.3179859e-08
2.3179369e-08
2.3178858e-08
2.3178343e-08
4.4119846e-10
1.0040555e-09
5.1087135e-09
1.1842945e-08
1.7713923e-08
2.1355798e-08
2.3131123e-08
2.3821532e-08
2.4019109e-08
2.4043007e-08
2.4026714e-08
2.4011352e-08
2.4003224e-08
2.3999854e-08
2.3998649e-08
2.3998553e-08
2.3998596e-08
2.3998347e-08
2.3997736e-08
2.3997028e-08
2.3996324e-08
2.3995642e-08
2.3994989e-08
2.3994425e-08
2.3993957e-08
2.3993515e-08
2.399306e-08
2.3992595e-08
2.3992127e-08
2.3991664e-08
2.3991202e-08
2.3990742e-08
2.3990282e-08
2.398982e-08
2.3989354e-08
2.3988886e-08
2.398841e-08
2.3987933e-08
2.3987449e-08
2.3986952e-08
2.3986452e-08
2.3985945e-08
2.398543e-08
2.3984909e-08
2.3984381e-08
2.3983842e-08
2.3983293e-08
2.3982734e-08
2.3982167e-08
2.3981589e-08
2.3980999e-08
2.3980394e-08
2.3979773e-08
2.3979132e-08
2.397847e-08
2.3977786e-08
2.3977082e-08
2.3976359e-08
2.397562e-08
2.3974869e-08
2.3974106e-08
2.3973331e-08
2.3972544e-08
2.3971742e-08
2.3970924e-08
2.3970087e-08
2.3969229e-08
2.3968346e-08
2.3967437e-08
2.3966497e-08
2.3965522e-08
2.396451e-08
2.3963459e-08
2.396237e-08
2.3961242e-08
2.3960081e-08
2.3958873e-08
2.3957612e-08
2.3956264e-08
2.3954827e-08
2.3953319e-08
4.3841762e-10
1.2048711e-09
6.070002e-09
1.3412261e-08
1.9333993e-08
2.2733897e-08
2.4254526e-08
2.4782171e-08
2.4903015e-08
2.4900647e-08
2.4879443e-08
2.4865154e-08
2.4858408e-08
2.4855558e-08
2.4854373e-08
2.4853894e-08
2.4853416e-08
2.4852607e-08
2.4851506e-08
2.4850342e-08
2.4849192e-08
2.4848079e-08
2.4847011e-08
2.4846056e-08
2.4845198e-08
2.4844364e-08
2.4843523e-08
2.4842678e-08
2.4841839e-08
2.4841007e-08
2.4840181e-08
2.483936e-08
2.4838542e-08
2.4837728e-08
2.4836914e-08
2.48361e-08
2.4835279e-08
2.4834458e-08
2.4833632e-08
2.4832793e-08
2.483195e-08
2.4831101e-08
2.4830245e-08
2.4829383e-08
2.4828513e-08
2.4827632e-08
2.4826735e-08
2.4825828e-08
2.4824909e-08
2.4823979e-08
2.4823033e-08
2.4822069e-08
2.4821084e-08
2.4820076e-08
2.481904e-08
2.4817975e-08
2.4816881e-08
2.4815762e-08
2.4814618e-08
2.4813453e-08
2.4812267e-08
2.4811061e-08
2.4809831e-08
2.4808576e-08
2.4807291e-08
2.4805974e-08
2.480462e-08
2.4803226e-08
2.4801785e-08
2.4800295e-08
2.4798747e-08
2.4797138e-08
2.479546e-08
2.4793714e-08
2.4791893e-08
2.4790003e-08
2.4788025e-08
2.4785947e-08
2.4783724e-08
2.4781345e-08
2.4778828e-08
4.4398575e-10
1.4549053e-09
7.2023783e-09
1.5131895e-08
2.1019964e-08
2.4129838e-08
2.5392223e-08
2.5772313e-08
2.5831808e-08
2.5812313e-08
2.5789892e-08
2.5777511e-08
2.5772009e-08
2.5769439e-08
2.5768081e-08
2.5767114e-08
2.5766097e-08
2.5764747e-08
2.5763141e-08
2.5761506e-08
2.5759902e-08
2.5758352e-08
2.5756862e-08
2.5755511e-08
2.5754254e-08
2.575302e-08
2.5751783e-08
2.5750553e-08
2.5749334e-08
2.5748129e-08
2.5746932e-08
2.5745745e-08
2.5744563e-08
2.574339e-08
2.5742219e-08
2.5741052e-08
2.573988e-08
2.5738711e-08
2.5737536e-08
2.5736352e-08
2.573516e-08
2.5733963e-08
2.5732759e-08
2.5731548e-08
2.5730328e-08
2.5729098e-08
2.5727851e-08
2.5726591e-08
2.5725316e-08
2.5724028e-08
2.5722719e-08
2.572139e-08
2.5720035e-08
2.5718652e-08
2.5717236e-08
2.5715784e-08
2.5714295e-08
2.5712773e-08
2.5711219e-08
2.5709635e-08
2.5708019e-08
2.5706374e-08
2.5704693e-08
2.5702977e-08
2.5701216e-08
2.5699411e-08
2.5697552e-08
2.5695637e-08
2.5693656e-08
2.5691606e-08
2.5689476e-08
2.568726e-08
2.5684947e-08
2.5682534e-08
2.5680009e-08
2.5677377e-08
2.5674614e-08
2.5671707e-08
2.5668597e-08
2.5665259e-08
2.5661714e-08
4.5907227e-10
1.7673625e-09
8.524965e-09
1.6993165e-08
2.2755356e-08
2.5536249e-08
2.6547258e-08
2.6800126e-08
2.6814089e-08
2.678534e-08
2.6764232e-08
2.6753999e-08
2.6749427e-08
2.6746918e-08
2.6745162e-08
2.6743672e-08
2.6742118e-08
2.6740211e-08
2.6738099e-08
2.6735984e-08
2.6733918e-08
2.6731922e-08
2.6730011e-08
2.6728257e-08
2.6726592e-08
2.6724947e-08
2.672331e-08
2.6721686e-08
2.6720082e-08
2.6718496e-08
2.6716924e-08
2.6715364e-08
2.6713815e-08
2.6712275e-08
2.6710742e-08
2.6709214e-08
2.6707687e-08
2.6706162e-08
2.6704634e-08
2.6703098e-08
2.6701555e-08
2.6700005e-08
2.6698448e-08
2.6696884e-08
2.6695309e-08
2.6693722e-08
2.669212e-08
2.6690502e-08
2.6688867e-08
2.6687214e-08
2.6685539e-08
2.6683838e-08
2.6682108e-08
2.6680346e-08
2.6678544e-08
2.6676701e-08
2.6674816e-08
2.6672887e-08
2.6670916e-08
2.6668906e-08
2.6666855e-08
2.6664763e-08
2.6662625e-08
2.666044e-08
2.6658199e-08
2.6655899e-08
2.6653529e-08
2.6651087e-08
2.6648562e-08
2.6645948e-08
2.6643229e-08
2.66404e-08
2.6637444e-08
2.6634356e-08
2.6631118e-08
2.6627734e-08
2.6624178e-08
2.6620432e-08
2.6616426e-08
2.6612121e-08
2.6607536e-08
4.8558327e-10
2.1622876e-09
1.0064179e-08
1.8994777e-08
2.4533979e-08
2.6955533e-08
2.7729481e-08
2.7877018e-08
2.7859817e-08
2.7827874e-08
2.7809505e-08
2.7801248e-08
2.7797234e-08
2.7794558e-08
2.7792259e-08
2.7790254e-08
2.7788158e-08
2.7785684e-08
2.778306e-08
2.7780458e-08
2.7777924e-08
2.7775477e-08
2.7773148e-08
2.7770986e-08
2.7768905e-08
2.7766846e-08
2.7764802e-08
2.7762781e-08
2.7760786e-08
2.7758814e-08
2.7756863e-08
2.7754928e-08
2.7753007e-08
2.7751099e-08
2.7749199e-08
2.7747308e-08
2.7745419e-08
2.7743535e-08
2.7741649e-08
2.7739759e-08
2.7737859e-08
2.7735956e-08
2.7734042e-08
2.7732122e-08
2.7730189e-08
2.7728244e-08
2.7726281e-08
2.7724302e-08
2.7722303e-08
2.7720283e-08
2.7718236e-08
2.7716162e-08
2.7714054e-08
2.771191e-08
2.7709722e-08
2.7707488e-08
2.77052e-08
2.7702862e-08
2.7700471e-08
2.7698031e-08
2.7695539e-08
2.7692998e-08
2.7690399e-08
2.7687742e-08
2.7685016e-08
2.7682218e-08
2.7679336e-08
2.7676365e-08
2.7673291e-08
2.7670108e-08
2.7666797e-08
2.766335e-08
2.7659746e-08
2.7655979e-08
2.7652025e-08
2.7647883e-08
2.7643527e-08
2.7638938e-08
2.7634032e-08
2.7628755e-08
2.7623122e-08
5.2615172e-10
2.6699441e-09
1.1844908e-08
2.1129705e-08
2.6347917e-08
2.839168e-08
2.8950004e-08
2.9015019e-08
2.897928e-08
2.8948466e-08
2.8933353e-08
2.8926654e-08
2.8922872e-08
2.8919721e-08
2.8916866e-08
2.8914375e-08
2.8911722e-08
2.8908677e-08
2.8905534e-08
2.8902441e-08
2.8899437e-08
2.8896541e-08
2.8893798e-08
2.8891224e-08
2.8888722e-08
2.8886247e-08
2.8883795e-08
2.8881375e-08
2.8878986e-08
2.8876627e-08
2.8874292e-08
2.8871981e-08
2.8869686e-08
2.8867409e-08
2.8865141e-08
2.8862886e-08
2.8860634e-08
2.8858389e-08
2.8856143e-08
2.8853897e-08
2.8851639e-08
2.8849381e-08
2.8847111e-08
2.8844835e-08
2.8842543e-08
2.884024e-08
2.8837915e-08
2.8835574e-08
2.8833208e-08
2.8830821e-08
2.8828401e-08
2.8825955e-08
2.8823468e-08
2.8820945e-08
2.881837e-08
2.8815744e-08
2.8813054e-08
2.8810307e-08
2.8807494e-08
2.8804625e-08
2.8801691e-08
2.8798701e-08
2.879564e-08
2.8792512e-08
2.8789302e-08
2.8786007e-08
2.8782611e-08
2.877911e-08
2.8775486e-08
2.8771735e-08
2.876783e-08
2.8763767e-08
2.8759516e-08
2.8755072e-08
2.8750402e-08
2.8745503e-08
2.8740347e-08
2.8734914e-08
2.8729112e-08
2.8722864e-08
2.8716183e-08
5.8453781e-10
3.3369798e-09
1.388945e-08
2.3388063e-08
2.8191252e-08
2.9853406e-08
3.0222468e-08
3.0227378e-08
3.0183429e-08
3.0156359e-08
3.0144343e-08
3.0138676e-08
3.013479e-08
3.0130986e-08
3.0127618e-08
3.0124656e-08
3.0121427e-08
3.0117813e-08
3.0114153e-08
3.0110567e-08
3.0107096e-08
3.0103755e-08
3.0100604e-08
3.0097617e-08
3.0094694e-08
3.0091803e-08
3.0088945e-08
3.0086128e-08
3.0083347e-08
3.0080602e-08
3.0077885e-08
3.0075197e-08
3.007253e-08
3.0069885e-08
3.0067252e-08
3.0064634e-08
3.0062021e-08
3.0059418e-08
3.0056814e-08
3.0054214e-08
3.0051601e-08
3.0048988e-08
3.0046364e-08
3.0043734e-08
3.0041087e-08
3.0038427e-08
3.0035743e-08
3.0033042e-08
3.0030312e-08
3.002756e-08
3.0024772e-08
3.0021956e-08
3.0019095e-08
3.0016195e-08
3.0013236e-08
3.0010221e-08
3.0007134e-08
3.0003981e-08
3.0000752e-08
2.9997457e-08
2.9994086e-08
2.9990649e-08
2.9987131e-08
2.9983536e-08
2.9979845e-08
2.9976057e-08
2.9972151e-08
2.9968126e-08
2.9963958e-08
2.9959643e-08
2.9955152e-08
2.9950478e-08
2.9945588e-08
2.9940474e-08
2.9935096e-08
2.9929448e-08
2.9923497e-08
2.9917228e-08
2.9910541e-08
2.9903333e-08
2.9895611e-08
6.656596e-10
4.2310479e-09
1.6213719e-08
2.5757205e-08
3.0060449e-08
3.1350268e-08
3.1562664e-08
3.1528333e-08
3.1483903e-08
3.146172e-08
3.1452219e-08
3.1447117e-08
3.1442709e-08
3.1438251e-08
3.143444e-08
3.1431011e-08
3.1427186e-08
3.1423016e-08
3.1418841e-08
3.1414769e-08
3.1410841e-08
3.1407068e-08
3.1403518e-08
3.1400118e-08
3.1396776e-08
3.1393476e-08
3.1390219e-08
3.138701e-08
3.1383844e-08
3.1380718e-08
3.1377625e-08
3.1374566e-08
3.1371532e-08
3.1368523e-08
3.1365531e-08
3.1362556e-08
3.1359589e-08
3.1356633e-08
3.1353679e-08
3.135073e-08
3.1347768e-08
3.1344807e-08
3.1341835e-08
3.1338857e-08
3.133586e-08
3.133285e-08
3.1329814e-08
3.132676e-08
3.1323675e-08
3.1320565e-08
3.1317417e-08
3.1314237e-08
3.131101e-08
3.1307739e-08
3.1304405e-08
3.130101e-08
3.1297535e-08
3.1293987e-08
3.1290351e-08
3.128664e-08
3.1282842e-08
3.1278967e-08
3.1275e-08
3.1270945e-08
3.1266783e-08
3.1262513e-08
3.1258109e-08
3.125357e-08
3.124887e-08
3.1244005e-08
3.1238941e-08
3.123367e-08
3.1228155e-08
3.1222386e-08
3.1216317e-08
3.1209936e-08
3.1203206e-08
3.1196118e-08
3.1188568e-08
3.1180426e-08
3.1171681e-08
7.7558938e-10
5.4242218e-09
1.8825026e-08
2.8223027e-08
3.1955627e-08
3.2897983e-08
3.2988618e-08
3.2933175e-08
3.2893271e-08
3.287596e-08
3.2868214e-08
3.2863189e-08
3.2858039e-08
3.2852995e-08
3.2848803e-08
3.2844898e-08
3.2840469e-08
3.2835761e-08
3.2831082e-08
3.2826539e-08
3.282217e-08
3.2817989e-08
3.2814049e-08
3.2810242e-08
3.2806494e-08
3.2802796e-08
3.2799151e-08
3.2795562e-08
3.2792021e-08
3.2788525e-08
3.2785069e-08
3.278165e-08
3.277826e-08
3.2774898e-08
3.2771557e-08
3.2768236e-08
3.2764926e-08
3.276163e-08
3.2758336e-08
3.2755049e-08
3.2751752e-08
3.2748454e-08
3.2745145e-08
3.274183e-08
3.2738496e-08
3.2735148e-08
3.2731774e-08
3.2728379e-08
3.2724951e-08
3.2721497e-08
3.2718001e-08
3.271447e-08
3.2710889e-08
3.2707262e-08
3.2703568e-08
3.2699808e-08
3.2695963e-08
3.2692035e-08
3.268801e-08
3.2683898e-08
3.2679688e-08
3.267539e-08
3.2670989e-08
3.2666492e-08
3.2661876e-08
3.2657142e-08
3.265226e-08
3.2647228e-08
3.2642016e-08
3.2636623e-08
3.2631009e-08
3.2625165e-08
3.2619049e-08
3.2612652e-08
3.260592e-08
3.2598835e-08
3.2591353e-08
3.2583475e-08
3.2575099e-08
3.2566065e-08
3.2556332e-08
9.2267434e-10
6.9416265e-09
2.1728841e-08
3.0770752e-08
3.3882042e-08
3.4516386e-08
3.4520216e-08
3.4458061e-08
3.4425334e-08
3.441213e-08
3.4405428e-08
3.4399942e-08
3.4394058e-08
3.4388539e-08
3.4384021e-08
3.4379626e-08
3.4374604e-08
3.4369379e-08
3.4364217e-08
3.4359229e-08
3.4354445e-08
3.4349891e-08
3.4345576e-08
3.4341378e-08
3.4337241e-08
3.4333166e-08
3.4329153e-08
3.4325202e-08
3.4321305e-08
3.4317459e-08
3.4313657e-08
3.4309896e-08
3.4306169e-08
3.4302474e-08
3.4298802e-08
3.4295153e-08
3.4291518e-08
3.4287898e-08
3.4284284e-08
3.4280677e-08
3.4277064e-08
3.4273448e-08
3.426982e-08
3.4266188e-08
3.4262536e-08
3.4258871e-08
3.4255177e-08
3.4251463e-08
3.4247713e-08
3.4243933e-08
3.424011e-08
3.423625e-08
3.4232337e-08
3.4228375e-08
3.4224344e-08
3.4220244e-08
3.4216053e-08
3.4211771e-08
3.4207382e-08
3.4202894e-08
3.4198297e-08
3.4193601e-08
3.4188792e-08
3.4183878e-08
3.4178837e-08
3.4173667e-08
3.4168337e-08
3.4162844e-08
3.4157154e-08
3.4151266e-08
3.4145137e-08
3.4138757e-08
3.4132078e-08
3.4125092e-08
3.4117741e-08
3.4109999e-08
3.410181e-08
3.4093188e-08
3.4084041e-08
3.4074178e-08
3.4063511e-08
1.1215717e-09
8.9118265e-09
2.4947357e-08
3.3383971e-08
3.5853395e-08
3.6230008e-08
3.6178792e-08
3.6120619e-08
3.6095664e-08
3.6085411e-08
3.6079061e-08
3.6072858e-08
3.6066332e-08
3.6060444e-08
3.6055648e-08
3.6050754e-08
3.6045174e-08
3.6039461e-08
3.603385e-08
3.6028459e-08
3.6023299e-08
3.6018413e-08
3.6013748e-08
3.6009185e-08
3.6004691e-08
3.6000268e-08
3.5995916e-08
3.5991631e-08
3.5987407e-08
3.5983239e-08
3.597912e-08
3.5975046e-08
3.597101e-08
3.5967008e-08
3.5963034e-08
3.5959084e-08
3.5955153e-08
3.5951236e-08
3.594733e-08
3.594343e-08
3.593953e-08
3.5935623e-08
3.5931707e-08
3.5927786e-08
3.5923845e-08
3.5919891e-08
3.5915908e-08
3.5911903e-08
3.590786e-08
3.5903787e-08
3.5899667e-08
3.5895509e-08
3.5891295e-08
3.5887032e-08
3.5882697e-08
3.5878292e-08
3.587379e-08
3.5869192e-08
3.5864475e-08
3.5859651e-08
3.5854702e-08
3.5849647e-08
3.5844467e-08
3.5839176e-08
3.5833748e-08
3.5828187e-08
3.5822454e-08
3.5816546e-08
3.5810424e-08
3.5804092e-08
3.5797498e-08
3.5790637e-08
3.5783451e-08
3.5775936e-08
3.5768028e-08
3.5759698e-08
3.5750869e-08
3.574157e-08
3.5731732e-08
3.5721134e-08
3.5709612e-08
1.3936618e-09
1.1445894e-08
2.8462591e-08
3.6050232e-08
3.7896284e-08
3.8066086e-08
3.7988602e-08
3.7940358e-08
3.7922147e-08
3.7913715e-08
3.7907038e-08
3.7900158e-08
3.7893132e-08
3.7886983e-08
3.7881966e-08
3.7876578e-08
3.7870499e-08
3.7864339e-08
3.7858331e-08
3.7852593e-08
3.7847119e-08
3.7841949e-08
3.783697e-08
3.7832086e-08
3.7827279e-08
3.7822553e-08
3.7817905e-08
3.7813329e-08
3.7808819e-08
3.7804369e-08
3.7799975e-08
3.7795627e-08
3.7791323e-08
3.7787055e-08
3.7782819e-08
3.7778608e-08
3.7774421e-08
3.7770248e-08
3.776609e-08
3.7761936e-08
3.7757789e-08
3.7753633e-08
3.7749469e-08
3.7745301e-08
3.7741112e-08
3.7736912e-08
3.773268e-08
3.7728428e-08
3.7724136e-08
3.7719813e-08
3.7715441e-08
3.771103e-08
3.7706561e-08
3.7702043e-08
3.7697452e-08
3.769279e-08
3.7688027e-08
3.7683164e-08
3.7678174e-08
3.7673066e-08
3.7667821e-08
3.766246e-08
3.7656964e-08
3.7651351e-08
3.7645595e-08
3.7639703e-08
3.763363e-08
3.7627374e-08
3.7620888e-08
3.7614179e-08
3.7607196e-08
3.759993e-08
3.7592317e-08
3.7584357e-08
3.7575982e-08
3.7567159e-08
3.755779e-08
3.7547909e-08
3.7537491e-08
3.7526289e-08
3.7514033e-08
1.7732932e-09
1.4678177e-08
3.223464e-08
3.8757657e-08
4.0030694e-08
4.0056399e-08
3.9975181e-08
3.9938996e-08
3.9925769e-08
3.9918133e-08
3.9910847e-08
3.9903451e-08
3.9896055e-08
3.9889768e-08
3.9884599e-08
3.9878754e-08
3.9872252e-08
3.9865707e-08
3.9859377e-08
3.9853374e-08
3.9847668e-08
3.9842273e-08
3.9837038e-08
3.9831896e-08
3.9826839e-08
3.9821872e-08
3.9816987e-08
3.981218e-08
3.9807443e-08
3.980277e-08
3.9798157e-08
3.9793594e-08
3.9789078e-08
3.9784601e-08
3.978016e-08
3.9775745e-08
3.9771357e-08
3.9766985e-08
3.9762631e-08
3.9758281e-08
3.9753942e-08
3.9749594e-08
3.9745242e-08
3.9740883e-08
3.9736506e-08
3.9732117e-08
3.9727697e-08
3.9723257e-08
3.9718776e-08
3.9714265e-08
3.9709703e-08
3.9705103e-08
3.9700442e-08
3.9695734e-08
3.9690951e-08
3.9686101e-08
3.9681146e-08
3.9676093e-08
3.9670903e-08
3.9665588e-08
3.9660122e-08
3.9654532e-08
3.9648795e-08
3.9642939e-08
3.9636934e-08
3.9630795e-08
3.9624469e-08
3.9617958e-08
3.9611202e-08
3.9604217e-08
3.9596945e-08
3.9589384e-08
3.9581456e-08
3.9573168e-08
3.9564448e-08
3.9555268e-08
3.9545496e-08
3.9535169e-08
3.9524324e-08
3.95127e-08
3.9499876e-08
2.3187218e-09
1.8750808e-08
3.6158581e-08
4.1516034e-08
4.2298316e-08
4.2236828e-08
4.2166613e-08
4.2141677e-08
4.2131611e-08
4.2123935e-08
4.2116125e-08
4.2108436e-08
4.2100811e-08
4.209454e-08
4.2089315e-08
4.2083092e-08
4.2076252e-08
4.2069418e-08
4.2062878e-08
4.2056718e-08
4.2050892e-08
4.204535e-08
4.2039941e-08
4.2034628e-08
4.2029409e-08
4.2024286e-08
4.2019249e-08
4.2014293e-08
4.200941e-08
4.2004597e-08
4.1999844e-08
4.1995146e-08
4.1990497e-08
4.198589e-08
4.198132e-08
4.1976781e-08
4.1972271e-08
4.1967778e-08
4.1963306e-08
4.195884e-08
4.1954386e-08
4.1949926e-08
4.1945465e-08
4.1940995e-08
4.193651e-08
4.1932014e-08
4.1927487e-08
4.1922944e-08
4.1918356e-08
4.1913743e-08
4.1909074e-08
4.1904373e-08
4.1899606e-08
4.1894799e-08
4.1889915e-08
4.188497e-08
4.187992e-08
4.1874776e-08
4.1869487e-08
4.1864073e-08
4.1858488e-08
4.1852775e-08
4.1846901e-08
4.1840912e-08
4.1834765e-08
4.1828497e-08
4.1822037e-08
4.1815401e-08
4.1808506e-08
4.1801381e-08
4.179396e-08
4.1786254e-08
4.1778164e-08
4.1769709e-08
4.1760812e-08
4.1751459e-08
4.1741481e-08
4.1730893e-08
4.1719831e-08
4.1708029e-08
4.1694877e-08
3.1315976e-09
2.3796297e-08
4.0221056e-08
4.4365255e-08
4.4743603e-08
4.4646097e-08
4.4594604e-08
4.4578258e-08
4.4569762e-08
4.4561736e-08
4.4553674e-08
4.4545922e-08
4.4538246e-08
4.4532183e-08
4.452704e-08
4.4520564e-08
4.45135e-08
4.4506511e-08
4.449992e-08
4.4493755e-08
4.4487942e-08
4.4482363e-08
4.44769e-08
4.4471538e-08
4.4466276e-08
4.4461114e-08
4.4456039e-08
4.4451049e-08
4.4446133e-08
4.444129e-08
4.4436508e-08
4.4431784e-08
4.442711e-08
4.4422481e-08
4.4417892e-08
4.4413335e-08
4.4408808e-08
4.4404303e-08
4.4399819e-08
4.4395345e-08
4.4390884e-08
4.438642e-08
4.4381958e-08
4.4377486e-08
4.4373006e-08
4.4368511e-08
4.4363993e-08
4.4359455e-08
4.4354879e-08
4.4350278e-08
4.4345622e-08
4.4340937e-08
4.4336186e-08
4.4331399e-08
4.432654e-08
4.4321626e-08
4.4316611e-08
4.431151e-08
4.4306265e-08
4.430089e-08
4.4295333e-08
4.4289641e-08
4.4283775e-08
4.4277798e-08
4.4271665e-08
4.426542e-08
4.4258992e-08
4.4252404e-08
4.4245555e-08
4.4238471e-08
4.4231098e-08
4.4223446e-08
4.421541e-08
4.4207002e-08
4.4198161e-08
4.4188876e-08
4.4178972e-08
4.4168379e-08
4.4157383e-08
4.4145724e-08
4.4132585e-08
4.4047401e-09
2.9892356e-08
4.4676599e-08
4.7341909e-08
4.7420086e-08
4.7328099e-08
4.7295764e-08
4.7284771e-08
4.727675e-08
4.7268602e-08
4.7260642e-08
4.7253086e-08
4.724559e-08
4.7239988e-08
4.723513e-08
4.7228578e-08
4.7221432e-08
4.721449e-08
4.720807e-08
4.7202104e-08
4.7196467e-08
4.7191012e-08
4.7185661e-08
4.7180419e-08
4.7175277e-08
4.7170236e-08
4.716528e-08
4.7160411e-08
4.7155615e-08
4.7150894e-08
4.7146234e-08
4.7141634e-08
4.7137083e-08
4.713258e-08
4.7128117e-08
4.712369e-08
4.7119294e-08
4.7114922e-08
4.7110572e-08
4.7106236e-08
4.7101915e-08
4.7097595e-08
4.7093279e-08
4.7088955e-08
4.708463e-08
4.7080287e-08
4.7075932e-08
4.7071552e-08
4.7067146e-08
4.706271e-08
4.7058233e-08
4.7053719e-08
4.7049156e-08
4.704455e-08
4.7039889e-08
4.7035172e-08
4.7030374e-08
4.7025491e-08
4.7020482e-08
4.7015341e-08
4.7010009e-08
4.7004534e-08
4.6998875e-08
4.6993112e-08
4.6987197e-08
4.6981191e-08
4.6975015e-08
4.696871e-08
4.6962154e-08
4.6955366e-08
4.6948303e-08
4.6940978e-08
4.6933286e-08
4.6925225e-08
4.6916751e-08
4.6907863e-08
4.6898404e-08
4.6888178e-08
4.687762e-08
4.6866535e-08
4.6853887e-08
6.7456568e-09
3.6969298e-08
4.8926434e-08
5.0448967e-08
5.0395917e-08
5.0331422e-08
5.0313271e-08
5.0305015e-08
5.0297223e-08
5.0289449e-08
5.0281992e-08
5.0274949e-08
5.0267953e-08
5.0263137e-08
5.0258868e-08
5.0252463e-08
5.0245426e-08
5.0238833e-08
5.0232888e-08
5.0227381e-08
5.0222139e-08
5.0217034e-08
5.021203e-08
5.0207133e-08
5.0202334e-08
5.0197632e-08
5.019301e-08
5.0188474e-08
5.0184008e-08
5.0179616e-08
5.0175283e-08
5.017101e-08
5.0166786e-08
5.016261e-08
5.0158475e-08
5.0154376e-08
5.015031e-08
5.0146269e-08
5.0142254e-08
5.0138254e-08
5.0134274e-08
5.0130297e-08
5.012633e-08
5.0122357e-08
5.0118388e-08
5.0114406e-08
5.0110417e-08
5.0106407e-08
5.0102381e-08
5.0098325e-08
5.0094243e-08
5.0090122e-08
5.0085967e-08
5.0081772e-08
5.0077535e-08
5.0073249e-08
5.0068899e-08
5.0064476e-08
5.0059963e-08
5.0055316e-08
5.0050482e-08
5.004549e-08
5.0040312e-08
5.0035034e-08
5.0029625e-08
5.0024141e-08
5.0018523e-08
5.0012812e-08
5.0006893e-08
5.000074e-08
4.9994346e-08
4.9987715e-08
4.9980764e-08
4.9973456e-08
4.9965774e-08
4.9957722e-08
4.9949203e-08
4.9939882e-08
4.9930247e-08
4.9920307e-08
4.9908834e-08
1.3134753e-08
4.4592631e-08
5.3200132e-08
5.3835754e-08
5.3743829e-08
5.3708639e-08
5.369887e-08
5.3692006e-08
5.3684952e-08
5.3678171e-08
5.3671709e-08
5.3665609e-08
5.3659539e-08
5.3655932e-08
5.3652719e-08
5.3646651e-08
5.364006e-08
5.3634273e-08
5.3629199e-08
5.3624483e-08
5.3619941e-08
5.3615508e-08
5.3611168e-08
5.3606929e-08
5.3602776e-08
5.3598712e-08
5.359472e-08
5.3590807e-08
5.3586958e-08
5.3583178e-08
5.3579453e-08
5.3575787e-08
5.3572165e-08
5.356859e-08
5.3565055e-08
5.3561557e-08
5.3558092e-08
5.3554654e-08
5.3551244e-08
5.3547851e-08
5.3544482e-08
5.354112e-08
5.3537774e-08
5.3534427e-08
5.353109e-08
5.3527746e-08
5.3524404e-08
5.3521048e-08
5.3517685e-08
5.3514301e-08
5.3510901e-08
5.3507475e-08
5.3504024e-08
5.3500547e-08
5.3497041e-08
5.3493504e-08
5.3489919e-08
5.3486283e-08
5.3482577e-08
5.3478789e-08
5.3474818e-08
5.3470681e-08
5.3466343e-08
5.3461934e-08
5.3457407e-08
5.3452849e-08
5.3448191e-08
5.3443504e-08
5.3438651e-08
5.3433614e-08
5.342835e-08
5.3422922e-08
5.3417224e-08
5.3411238e-08
5.3404897e-08
5.3398295e-08
5.339132e-08
5.3383714e-08
5.33756e-08
5.3367567e-08
5.3358219e-08
2.586593e-08
5.3165204e-08
5.7510948e-08
5.7589061e-08
5.7530553e-08
5.7517278e-08
5.751169e-08
5.7506283e-08
5.7500981e-08
5.7495906e-08
5.7491097e-08
5.7486539e-08
5.7481986e-08
5.7480027e-08
5.7478435e-08
5.7473032e-08
5.7467544e-08
5.7463211e-08
5.74595e-08
5.745601e-08
5.7452615e-08
5.7449309e-08
5.7446074e-08
5.7442925e-08
5.7439839e-08
5.7436831e-08
5.7433871e-08
5.7430988e-08
5.7428147e-08
5.7425375e-08
5.7422639e-08
5.7419963e-08
5.7417317e-08
5.7414723e-08
5.7412155e-08
5.7409633e-08
5.7407131e-08
5.7404668e-08
5.740222e-08
5.7399807e-08
5.7397405e-08
5.7395031e-08
5.7392663e-08
5.7390317e-08
5.7387974e-08
5.7385646e-08
5.7383317e-08
5.7380997e-08
5.737867e-08
5.7376346e-08
5.7374009e-08
5.7371671e-08
5.7369316e-08
5.7366961e-08
5.7364588e-08
5.7362214e-08
5.7359811e-08
5.7357389e-08
5.735492e-08
5.7352415e-08
5.734979e-08
5.7346996e-08
5.7344007e-08
5.7340961e-08
5.7337848e-08
5.7334738e-08
5.7331582e-08
5.7328456e-08
5.7325249e-08
5.7321916e-08
5.7318408e-08
5.7314814e-08
5.7311046e-08
5.7307086e-08
5.7302825e-08
5.7298451e-08
5.7293825e-08
5.7288875e-08
5.72832e-08
5.7278022e-08
5.7271897e-08
4.7299543e-08
6.0721073e-08
6.1850113e-08
6.1820977e-08
6.1808524e-08
6.1804893e-08
6.1802488e-08
6.1799754e-08
6.1797255e-08
6.179482e-08
6.179255e-08
6.179025e-08
6.1788161e-08
6.1787682e-08
6.1787933e-08
6.1784301e-08
6.1781205e-08
6.1779162e-08
6.1777438e-08
6.1775768e-08
6.1774158e-08
6.1772581e-08
6.1771058e-08
6.1769571e-08
6.1768133e-08
6.1766729e-08
6.1765363e-08
6.1764036e-08
6.1762747e-08
6.1761494e-08
6.1760271e-08
6.1759086e-08
6.1757926e-08
6.1756802e-08
6.1755699e-08
6.1754634e-08
6.1753583e-08
6.175257e-08
6.1751567e-08
6.1750604e-08
6.1749646e-08
6.1748728e-08
6.1747813e-08
6.1746934e-08
6.1746058e-08
6.1745216e-08
6.1744372e-08
6.1743563e-08
6.1742748e-08
6.1741967e-08
6.1741175e-08
6.1740418e-08
6.1739648e-08
6.1738919e-08
6.1738174e-08
6.1737478e-08
6.173676e-08
6.1736085e-08
6.1735373e-08
6.1734704e-08
6.1733963e-08
6.1733179e-08
6.1732203e-08
6.1731259e-08
6.173025e-08
6.1729331e-08
6.172837e-08
6.1727527e-08
6.1726622e-08
6.1725757e-08
6.172475e-08
6.1723804e-08
6.1722734e-08
6.1721686e-08
6.1720422e-08
6.1719237e-08
6.1717885e-08
6.1716568e-08
6.1714665e-08
6.1713404e-08
6.1711583e-08
1.4167605e-08
1.4167613e-08
1.4168169e-08
1.4168117e-08
1.4168269e-08
1.4168341e-08
1.4168449e-08
1.4168549e-08
1.4168655e-08
1.4168763e-08
1.4168872e-08
1.4168984e-08
1.4169098e-08
1.4169213e-08
1.416933e-08
1.4169448e-08
1.4169565e-08
1.4169682e-08
1.4169799e-08
1.4169913e-08
1.4170026e-08
1.4170138e-08
1.4170247e-08
1.4170354e-08
1.4170459e-08
1.4170564e-08
1.4170668e-08
1.4170771e-08
1.4170871e-08
1.4170969e-08
1.4171059e-08
1.4171143e-08
1.4171217e-08
1.4171283e-08
1.4171338e-08
1.4171386e-08
1.4171425e-08
1.4171456e-08
1.4171478e-08
1.4171492e-08
1.4171496e-08
1.4171492e-08
1.4171477e-08
1.4171455e-08
1.4171424e-08
1.4171385e-08
1.4171338e-08
1.4171285e-08
1.4171223e-08
1.4171153e-08
1.4171074e-08
1.4170988e-08
1.4170899e-08
1.4170811e-08
1.4170728e-08
1.4170653e-08
1.4170589e-08
1.4170554e-08
1.4170602e-08
1.4170847e-08
1.4171444e-08
1.4172431e-08
1.4173258e-08
1.4171762e-08
1.4162273e-08
1.4132714e-08
1.4060821e-08
1.3910263e-08
1.3628178e-08
1.3146338e-08
1.238848e-08
1.1286222e-08
9.8049842e-09
7.9779607e-09
5.936668e-09
3.9124882e-09
2.1847382e-09
9.920823e-10
4.9150802e-10
8.1142528e-10
5.5737623e-09
1.4352536e-08
1.4352555e-08
1.4352962e-08
1.4352957e-08
1.4353087e-08
1.4353169e-08
1.4353275e-08
1.4353379e-08
1.4353486e-08
1.4353595e-08
1.4353705e-08
1.4353819e-08
1.4353934e-08
1.4354051e-08
1.4354169e-08
1.4354288e-08
1.4354406e-08
1.4354524e-08
1.435464e-08
1.4354756e-08
1.435487e-08
1.4354983e-08
1.4355093e-08
1.4355202e-08
1.4355309e-08
1.4355416e-08
1.4355521e-08
1.4355626e-08
1.4355729e-08
1.4355827e-08
1.4355919e-08
1.4356003e-08
1.4356078e-08
1.4356143e-08
1.43562e-08
1.4356247e-08
1.4356286e-08
1.4356316e-08
1.4356339e-08
1.4356352e-08
1.4356356e-08
1.435635e-08
1.4356336e-08
1.4356312e-08
1.4356281e-08
1.4356241e-08
1.4356193e-08
1.4356138e-08
1.4356076e-08
1.4356005e-08
1.4355925e-08
1.4355839e-08
1.435575e-08
1.4355662e-08
1.4355579e-08
1.4355503e-08
1.435544e-08
1.4355404e-08
1.4355448e-08
1.4355681e-08
1.4356255e-08
1.4357227e-08
1.4358137e-08
1.4357064e-08
1.4348864e-08
1.4322394e-08
1.425678e-08
1.4117371e-08
1.385277e-08
1.3395112e-08
1.2666276e-08
1.1592726e-08
1.0130993e-08
8.3027728e-09
6.2296179e-09
4.1415386e-09
2.3299621e-09
1.055103e-09
4.966012e-10
7.1630863e-10
4.8304453e-09
1.4549351e-08
1.4549355e-08
1.4549724e-08
1.4549728e-08
1.4549856e-08
1.4549942e-08
1.455005e-08
1.4550156e-08
1.4550265e-08
1.4550376e-08
1.4550489e-08
1.4550604e-08
1.4550722e-08
1.4550841e-08
1.455096e-08
1.4551081e-08
1.45512e-08
1.455132e-08
1.4551438e-08
1.4551556e-08
1.4551672e-08
1.4551786e-08
1.4551898e-08
1.4552009e-08
1.4552118e-08
1.4552226e-08
1.4552334e-08
1.455244e-08
1.4552545e-08
1.4552644e-08
1.4552738e-08
1.4552823e-08
1.4552898e-08
1.4552964e-08
1.4553021e-08
1.4553068e-08
1.4553108e-08
1.4553138e-08
1.4553161e-08
1.4553174e-08
1.4553179e-08
1.4553173e-08
1.455316e-08
1.4553136e-08
1.4553105e-08
1.4553066e-08
1.4553019e-08
1.4552964e-08
1.4552902e-08
1.4552832e-08
1.4552753e-08
1.4552668e-08
1.4552578e-08
1.455249e-08
1.4552406e-08
1.455233e-08
1.4552263e-08
1.4552213e-08
1.4552222e-08
1.4552385e-08
1.4552866e-08
1.4553803e-08
1.4554985e-08
1.4555047e-08
1.4549885e-08
1.4530004e-08
1.4476756e-08
1.4357933e-08
1.4123992e-08
1.3707081e-08
1.302575e-08
1.19985e-08
1.0568926e-08
8.7427106e-09
6.6281517e-09
4.4542402e-09
2.5298511e-09
1.1443238e-09
5.0807811e-10
6.3836322e-10
4.2289725e-09
1.4759146e-08
1.4759154e-08
1.475948e-08
1.4759496e-08
1.4759619e-08
1.4759711e-08
1.4759819e-08
1.4759927e-08
1.4760038e-08
1.4760151e-08
1.4760266e-08
1.4760383e-08
1.4760503e-08
1.4760623e-08
1.4760744e-08
1.4760866e-08
1.4760987e-08
1.4761108e-08
1.4761228e-08
1.4761346e-08
1.4761464e-08
1.4761579e-08
1.4761693e-08
1.4761806e-08
1.4761917e-08
1.4762027e-08
1.4762136e-08
1.4762244e-08
1.4762351e-08
1.4762451e-08
1.4762546e-08
1.4762631e-08
1.4762707e-08
1.4762772e-08
1.4762829e-08
1.4762876e-08
1.4762916e-08
1.4762946e-08
1.4762969e-08
1.4762982e-08
1.4762987e-08
1.4762982e-08
1.4762968e-08
1.4762945e-08
1.4762914e-08
1.4762875e-08
1.4762828e-08
1.4762774e-08
1.4762712e-08
1.4762642e-08
1.4762564e-08
1.4762479e-08
1.4762389e-08
1.47623e-08
1.4762216e-08
1.476214e-08
1.4762071e-08
1.4762015e-08
1.4762002e-08
1.4762115e-08
1.476251e-08
1.4763365e-08
1.4764626e-08
1.4765333e-08
1.4762207e-08
1.4747178e-08
1.4703674e-08
1.4601988e-08
1.4394827e-08
1.4015136e-08
1.3379214e-08
1.2398702e-08
1.1004887e-08
9.1869267e-09
7.0376703e-09
4.781867e-09
2.7440911e-09
1.2437811e-09
5.2279469e-10
5.7105772e-10
3.6907108e-09
1.4983064e-08
1.4983079e-08
1.4983368e-08
1.4983396e-08
1.4983516e-08
1.4983612e-08
1.4983722e-08
1.4983832e-08
1.4983945e-08
1.4984059e-08
1.4984176e-08
1.4984296e-08
1.4984416e-08
1.4984539e-08
1.4984661e-08
1.4984784e-08
1.4984907e-08
1.4985029e-08
1.4985149e-08
1.4985269e-08
1.4985388e-08
1.4985505e-08
1.4985621e-08
1.4985735e-08
1.4985848e-08
1.4985959e-08
1.4986071e-08
1.498618e-08
1.4986288e-08
1.498639e-08
1.4986485e-08
1.498657e-08
1.4986646e-08
1.4986711e-08
1.4986768e-08
1.4986815e-08
1.4986854e-08
1.4986885e-08
1.4986908e-08
1.4986921e-08
1.4986927e-08
1.4986922e-08
1.4986909e-08
1.4986886e-08
1.4986855e-08
1.4986816e-08
1.4986769e-08
1.4986715e-08
1.4986654e-08
1.4986584e-08
1.4986507e-08
1.4986422e-08
1.4986332e-08
1.4986243e-08
1.4986159e-08
1.4986082e-08
1.4986013e-08
1.4985951e-08
1.4985918e-08
1.4985982e-08
1.4986289e-08
1.4987044e-08
1.4988327e-08
1.4989546e-08
1.498821e-08
1.4977647e-08
1.4943406e-08
1.4858456e-08
1.4678109e-08
1.4336619e-08
1.3748594e-08
1.2819135e-08