/*--------------------------------*- C++ -*----------------------------------*\
| =========                 |                                                 |
| \\      /  F ield         | OpenFOAM: The Open Source CFD Toolbox           |
|  \\    /   O peration     | Version:  v2006                                 |
|   \\  /    A nd           | Website:  www.openfoam.com                      |
|    \\/     M anipulation  |                                                 |
\*---------------------------------------------------------------------------*/
FoamFile
{
    version     2.0;
    format      ascii;
    class       volScalarField;
    location    "10000";
    object      nut;
}
// * * * * * * * * * * * * * * * * * * * * * * * * * * * * * * * * * * * * * //

dimensions      [0 2 -1 0 0 0 0];


internalField   nonuniform List<scalar> 
102907
(
2.9540891e-11
2.6583587e-10
4.1055805e-09
2.0394288e-08
4.7763316e-08
7.1551816e-08
8.501378e-08
9.0795224e-08
9.2741516e-08
9.3177984e-08
9.3162752e-08
9.3078589e-08
9.3021882e-08
9.299602e-08
9.2987583e-08
9.2988078e-08
9.299087e-08
9.2992669e-08
9.2992955e-08
9.2992144e-08
9.2991179e-08
9.2990313e-08
9.2989629e-08
9.2989269e-08
9.2989319e-08
9.2989487e-08
9.2989555e-08
9.2989525e-08
9.2989454e-08
9.2989398e-08
9.2989345e-08
9.2989303e-08
9.2989249e-08
9.2989204e-08
9.2989133e-08
9.2989064e-08
9.2988955e-08
9.2988867e-08
9.2988755e-08
9.2988623e-08
9.2988495e-08
9.2988352e-08
9.2988198e-08
9.2988028e-08
9.298785e-08
9.2987651e-08
9.2987445e-08
9.2987233e-08
9.2987022e-08
9.2986801e-08
9.2986574e-08
9.2986329e-08
9.2986067e-08
9.2985782e-08
9.2985473e-08
9.2985135e-08
9.2984773e-08
9.2984394e-08
9.2984005e-08
9.2983614e-08
9.2983227e-08
9.2982844e-08
9.2982463e-08
9.2982082e-08
9.2981698e-08
9.2981312e-08
9.2980922e-08
9.2980529e-08
9.2980123e-08
9.2979706e-08
9.2979271e-08
9.2978826e-08
9.2978372e-08
9.2977924e-08
9.297748e-08
9.2977063e-08
9.297665e-08
9.2976247e-08
9.2975783e-08
9.2975239e-08
9.2974557e-08
3.0805916e-11
3.373419e-10
5.1960313e-09
2.4287295e-08
5.3320282e-08
7.6071293e-08
8.777374e-08
9.2312695e-08
9.3651846e-08
9.3854558e-08
9.3778394e-08
9.3693146e-08
9.3646715e-08
9.362813e-08
9.3623152e-08
9.3625296e-08
9.362799e-08
9.3629103e-08
9.3628464e-08
9.3627255e-08
9.3625972e-08
9.3624811e-08
9.3623839e-08
9.362326e-08
9.3623043e-08
9.3622892e-08
9.3622644e-08
9.3622324e-08
9.3621977e-08
9.3621648e-08
9.3621322e-08
9.3621013e-08
9.3620691e-08
9.3620377e-08
9.362004e-08
9.3619711e-08
9.3619346e-08
9.3618999e-08
9.3618628e-08
9.3618247e-08
9.3617863e-08
9.3617463e-08
9.3617046e-08
9.3616625e-08
9.3616192e-08
9.3615742e-08
9.3615273e-08
9.3614803e-08
9.3614328e-08
9.3613849e-08
9.3613356e-08
9.3612851e-08
9.361232e-08
9.3611768e-08
9.361118e-08
9.3610567e-08
9.3609916e-08
9.3609247e-08
9.3608555e-08
9.360786e-08
9.3607157e-08
9.3606456e-08
9.3605746e-08
9.3605032e-08
9.3604303e-08
9.3603563e-08
9.3602803e-08
9.3602031e-08
9.360123e-08
9.3600407e-08
9.3599545e-08
9.3598655e-08
9.359773e-08
9.359679e-08
9.3595824e-08
9.3594861e-08
9.3593869e-08
9.3592858e-08
9.3591744e-08
9.3590499e-08
9.3589058e-08
3.255661e-11
4.2756695e-10
6.5067041e-09
2.8560196e-08
5.8834738e-08
8.018312e-08
9.0111514e-08
9.3617587e-08
9.4476672e-08
9.4515938e-08
9.4409513e-08
9.4332147e-08
9.4296392e-08
9.42835e-08
9.4282205e-08
9.4284594e-08
9.4286591e-08
9.428686e-08
9.4285735e-08
9.4284164e-08
9.4282541e-08
9.4281078e-08
9.4279833e-08
9.4279035e-08
9.4278562e-08
9.4278115e-08
9.4277565e-08
9.4276962e-08
9.4276344e-08
9.4275747e-08
9.4275149e-08
9.4274567e-08
9.4273976e-08
9.4273405e-08
9.4272816e-08
9.4272241e-08
9.4271626e-08
9.4271033e-08
9.427041e-08
9.4269782e-08
9.4269138e-08
9.4268484e-08
9.4267818e-08
9.4267149e-08
9.4266472e-08
9.4265776e-08
9.4265052e-08
9.4264325e-08
9.4263597e-08
9.4262869e-08
9.4262125e-08
9.4261365e-08
9.4260577e-08
9.4259763e-08
9.4258907e-08
9.4258017e-08
9.4257084e-08
9.4256128e-08
9.4255147e-08
9.4254158e-08
9.4253155e-08
9.4252148e-08
9.4251123e-08
9.4250087e-08
9.4249024e-08
9.4247944e-08
9.4246827e-08
9.4245686e-08
9.4244498e-08
9.4243278e-08
9.4242001e-08
9.4240685e-08
9.4239308e-08
9.4237896e-08
9.423643e-08
9.4234943e-08
9.4233394e-08
9.4231797e-08
9.4230057e-08
9.4228142e-08
9.4225963e-08
3.5005394e-11
5.4467089e-10
8.129552e-09
3.3353292e-08
6.4386795e-08
8.3997956e-08
9.2196992e-08
9.4765917e-08
9.52452e-08
9.517801e-08
9.5063985e-08
9.4999694e-08
9.4973547e-08
9.4966019e-08
9.4966756e-08
9.4968785e-08
9.4970019e-08
9.4969617e-08
9.4968016e-08
9.4966083e-08
9.496414e-08
9.4962399e-08
9.4960904e-08
9.4959902e-08
9.4959168e-08
9.4958426e-08
9.4957586e-08
9.4956712e-08
9.4955835e-08
9.4954984e-08
9.4954131e-08
9.4953294e-08
9.4952448e-08
9.4951622e-08
9.4950783e-08
9.4949963e-08
9.4949109e-08
9.4948284e-08
9.4947423e-08
9.4946566e-08
9.4945679e-08
9.4944785e-08
9.4943871e-08
9.4942961e-08
9.4942036e-08
9.4941108e-08
9.4940153e-08
9.4939193e-08
9.4938222e-08
9.4937253e-08
9.4936261e-08
9.4935255e-08
9.4934215e-08
9.4933148e-08
9.4932034e-08
9.4930882e-08
9.4929682e-08
9.4928457e-08
9.4927204e-08
9.4925939e-08
9.4924648e-08
9.4923349e-08
9.4922018e-08
9.4920673e-08
9.4919285e-08
9.4917874e-08
9.4916411e-08
9.4914917e-08
9.4913361e-08
9.4911764e-08
9.4910094e-08
9.4908372e-08
9.4906566e-08
9.4904703e-08
9.4902754e-08
9.4900758e-08
9.4898673e-08
9.4896515e-08
9.4894178e-08
9.4891618e-08
9.4888731e-08
3.836778e-11
6.970329e-10
1.0117419e-08
3.861863e-08
6.9837371e-08
8.7452674e-08
9.4002473e-08
9.5782485e-08
9.598011e-08
9.5853822e-08
9.5747317e-08
9.56976e-08
9.5679375e-08
9.5676659e-08
9.5677739e-08
9.5679154e-08
9.567971e-08
9.5678685e-08
9.5676652e-08
9.5674365e-08
9.5672126e-08
9.5670123e-08
9.5668416e-08
9.5667214e-08
9.5666224e-08
9.5665191e-08
9.5664077e-08
9.566294e-08
9.566182e-08
9.5660719e-08
9.5659628e-08
9.5658545e-08
9.5657463e-08
9.5656393e-08
9.5655318e-08
9.5654256e-08
9.5653176e-08
9.5652118e-08
9.5651033e-08
9.5649952e-08
9.5648843e-08
9.5647718e-08
9.5646579e-08
9.5645438e-08
9.5644285e-08
9.5643124e-08
9.5641949e-08
9.5640762e-08
9.5639564e-08
9.5638357e-08
9.5637132e-08
9.5635885e-08
9.5634609e-08
9.56333e-08
9.5631945e-08
9.5630548e-08
9.5629106e-08
9.562763e-08
9.5626115e-08
9.5624579e-08
9.5623011e-08
9.5621427e-08
9.5619805e-08
9.5618161e-08
9.5616466e-08
9.561474e-08
9.5612952e-08
9.5611127e-08
9.560923e-08
9.5607284e-08
9.5605243e-08
9.5603135e-08
9.5600914e-08
9.5598621e-08
9.5596207e-08
9.5593729e-08
9.559113e-08
9.5588444e-08
9.5585539e-08
9.5582375e-08
9.5578809e-08
4.2954804e-11
8.9728377e-10
1.2541906e-08
4.4327595e-08
7.5105954e-08
9.0514838e-08
9.5569538e-08
9.6703082e-08
9.6703153e-08
9.6553446e-08
9.6463557e-08
9.6426906e-08
9.6416676e-08
9.6416234e-08
9.6416853e-08
9.6417684e-08
9.6417669e-08
9.6416052e-08
9.6413601e-08
9.6410974e-08
9.6408462e-08
9.6406223e-08
9.6404343e-08
9.6402949e-08
9.6401702e-08
9.6400395e-08
9.639902e-08
9.6397639e-08
9.6396277e-08
9.6394944e-08
9.6393622e-08
9.6392313e-08
9.6391004e-08
9.6389713e-08
9.6388413e-08
9.638713e-08
9.6385825e-08
9.6384551e-08
9.6383242e-08
9.6381956e-08
9.6380629e-08
9.6379299e-08
9.6377942e-08
9.6376594e-08
9.6375223e-08
9.6373853e-08
9.6372454e-08
9.6371058e-08
9.6369635e-08
9.6368214e-08
9.636676e-08
9.6365296e-08
9.6363791e-08
9.6362266e-08
9.6360686e-08
9.6359073e-08
9.6357392e-08
9.635568e-08
9.6353909e-08
9.6352121e-08
9.6350285e-08
9.6348438e-08
9.6346538e-08
9.6344618e-08
9.6342634e-08
9.6340619e-08
9.6338531e-08
9.6336401e-08
9.6334181e-08
9.6331901e-08
9.6329505e-08
9.6327031e-08
9.6324421e-08
9.6321724e-08
9.631888e-08
9.6315946e-08
9.6312863e-08
9.6309678e-08
9.6306244e-08
9.6302509e-08
9.629831e-08
4.9192505e-11
1.1644613e-09
1.5478998e-08
5.0416581e-08
8.0108493e-08
9.3054602e-08
9.6932788e-08
9.7555773e-08
9.7432102e-08
9.7285471e-08
9.7215487e-08
9.7190206e-08
9.7186275e-08
9.7186118e-08
9.7186113e-08
9.7186524e-08
9.7185979e-08
9.7183799e-08
9.7180932e-08
9.7177992e-08
9.7175232e-08
9.7172792e-08
9.717077e-08
9.7169196e-08
9.7167692e-08
9.7166132e-08
9.7164508e-08
9.7162907e-08
9.7161314e-08
9.7159765e-08
9.7158216e-08
9.7156704e-08
9.7155179e-08
9.7153688e-08
9.7152173e-08
9.7150691e-08
9.7149173e-08
9.7147702e-08
9.7146179e-08
9.7144702e-08
9.7143164e-08
9.7141648e-08
9.7140087e-08
9.7138553e-08
9.7136973e-08
9.7135412e-08
9.7133801e-08
9.7132211e-08
9.7130575e-08
9.7128958e-08
9.7127289e-08
9.7125632e-08
9.7123916e-08
9.7122201e-08
9.7120406e-08
9.711859e-08
9.711668e-08
9.7114751e-08
9.7112738e-08
9.7110721e-08
9.7108634e-08
9.7106547e-08
9.7104388e-08
9.710222e-08
9.7099969e-08
9.7097693e-08
9.7095318e-08
9.7092904e-08
9.7090374e-08
9.7087789e-08
9.708506e-08
9.7082254e-08
9.7079282e-08
9.7076218e-08
9.7072972e-08
9.7069622e-08
9.7066085e-08
9.7062438e-08
9.7058512e-08
9.7054251e-08
9.7049461e-08
5.7683291e-11
1.5282136e-09
1.9008027e-08
5.6797876e-08
8.4766964e-08
9.5394147e-08
9.8118282e-08
9.8364559e-08
9.8183796e-08
9.8056022e-08
9.800447e-08
9.7990156e-08
9.7989273e-08
9.7988399e-08
9.7987874e-08
9.798802e-08
9.7986941e-08
9.7984221e-08
9.7980969e-08
9.7977737e-08
9.7974771e-08
9.7972159e-08
9.797003e-08
9.7968275e-08
9.796653e-08
9.796473e-08
9.7962886e-08
9.7961078e-08
9.7959279e-08
9.7957526e-08
9.7955774e-08
9.7954065e-08
9.7952345e-08
9.7950665e-08
9.7948959e-08
9.7947292e-08
9.7945583e-08
9.7943928e-08
9.7942215e-08
9.794056e-08
9.7938835e-08
9.7937138e-08
9.7935398e-08
9.7933683e-08
9.7931919e-08
9.7930176e-08
9.7928381e-08
9.7926607e-08
9.7924785e-08
9.7922983e-08
9.7921128e-08
9.791929e-08
9.791739e-08
9.791549e-08
9.7913504e-08
9.7911495e-08
9.7909386e-08
9.7907253e-08
9.7905029e-08
9.7902798e-08
9.7900491e-08
9.7898184e-08
9.7895797e-08
9.7893399e-08
9.7890905e-08
9.7888383e-08
9.7885747e-08
9.7883071e-08
9.7880264e-08
9.78774e-08
9.7874374e-08
9.7871264e-08
9.7867967e-08
9.7864569e-08
9.7860961e-08
9.7857231e-08
9.785328e-08
9.7849209e-08
9.7844838e-08
9.7840102e-08
9.783477e-08
6.9243372e-11
2.0332756e-09
2.3204478e-08
6.3359045e-08
8.9033532e-08
9.7404707e-08
9.9173154e-08
9.9166055e-08
9.8970116e-08
9.8868921e-08
9.8833296e-08
9.8827883e-08
9.8827358e-08
9.8825599e-08
9.8824806e-08
9.882477e-08
9.8823108e-08
9.8819908e-08
9.8816296e-08
9.8812818e-08
9.8809683e-08
9.8806943e-08
9.8804724e-08
9.8802791e-08
9.8800819e-08
9.8798804e-08
9.8796762e-08
9.8794768e-08
9.8792785e-08
9.8790851e-08
9.8788917e-08
9.878703e-08
9.8785132e-08
9.878328e-08
9.8781403e-08
9.877957e-08
9.8777694e-08
9.8775873e-08
9.8773993e-08
9.8772179e-08
9.8770287e-08
9.8768428e-08
9.8766524e-08
9.8764646e-08
9.8762719e-08
9.8760814e-08
9.8758855e-08
9.8756919e-08
9.8754933e-08
9.8752969e-08
9.875095e-08
9.8748948e-08
9.8746881e-08
9.8744816e-08
9.8742662e-08
9.8740484e-08
9.87382e-08
9.8735888e-08
9.8733481e-08
9.8731063e-08
9.8728563e-08
9.8726058e-08
9.8723466e-08
9.8720859e-08
9.8718149e-08
9.8715409e-08
9.8712545e-08
9.8709637e-08
9.8706587e-08
9.8703476e-08
9.8700191e-08
9.8696812e-08
9.8693229e-08
9.8689532e-08
9.8685603e-08
9.8681535e-08
9.8677215e-08
9.8672765e-08
9.8668006e-08
9.8662852e-08
9.8657035e-08
8.4940122e-11
2.7344291e-09
2.8133314e-08
6.9968147e-08
9.2866574e-08
9.9132064e-08
1.0014482e-07
9.9982049e-08
9.980064e-08
9.9726331e-08
9.9705468e-08
9.9704585e-08
9.9703167e-08
9.970067e-08
9.9699893e-08
9.9699639e-08
9.9697362e-08
9.9693734e-08
9.9689815e-08
9.9686142e-08
9.9682885e-08
9.9680063e-08
9.9677767e-08
9.9675655e-08
9.9673481e-08
9.9671275e-08
9.9669066e-08
9.9666908e-08
9.9664768e-08
9.9662674e-08
9.9660585e-08
9.9658541e-08
9.9656491e-08
9.9654484e-08
9.9652459e-08
9.9650478e-08
9.9648461e-08
9.9646496e-08
9.9644474e-08
9.964252e-08
9.9640486e-08
9.9638485e-08
9.9636442e-08
9.9634422e-08
9.9632357e-08
9.9630311e-08
9.9628215e-08
9.9626139e-08
9.9624014e-08
9.9621907e-08
9.9619746e-08
9.96176e-08
9.9615392e-08
9.9613185e-08
9.9610893e-08
9.9608572e-08
9.9606144e-08
9.9603683e-08
9.9601121e-08
9.9598541e-08
9.9595873e-08
9.9593197e-08
9.9590427e-08
9.9587643e-08
9.958475e-08
9.9581826e-08
9.9578768e-08
9.9575664e-08
9.9572409e-08
9.9569089e-08
9.9565582e-08
9.9561977e-08
9.9558147e-08
9.9554198e-08
9.9549994e-08
9.954564e-08
9.9541002e-08
9.9536226e-08
9.9531138e-08
9.9525637e-08
9.9519399e-08
1.0626155e-10
3.6715701e-09
3.3854049e-08
7.6480138e-08
9.618058e-08
1.0062266e-07
1.0107017e-07
1.008317e-07
1.006819e-07
1.0063113e-07
1.006226e-07
1.006224e-07
1.0061983e-07
1.0061696e-07
1.0061639e-07
1.0061582e-07
1.0061293e-07
1.0060892e-07
1.0060476e-07
1.0060097e-07
1.0059763e-07
1.0059479e-07
1.0059241e-07
1.0059013e-07
1.0058778e-07
1.0058542e-07
1.0058307e-07
1.0058078e-07
1.0057851e-07
1.0057628e-07
1.0057407e-07
1.0057189e-07
1.0056972e-07
1.0056758e-07
1.0056544e-07
1.0056333e-07
1.005612e-07
1.0055911e-07
1.0055698e-07
1.005549e-07
1.0055276e-07
1.0055064e-07
1.0054848e-07
1.0054635e-07
1.0054417e-07
1.0054202e-07
1.0053981e-07
1.0053762e-07
1.0053538e-07
1.0053316e-07
1.0053088e-07
1.0052862e-07
1.005263e-07
1.0052398e-07
1.0052158e-07
1.0051915e-07
1.0051661e-07
1.0051403e-07
1.0051134e-07
1.0050863e-07
1.0050582e-07
1.0050301e-07
1.005001e-07
1.0049718e-07
1.0049414e-07
1.0049107e-07
1.0048786e-07
1.004846e-07
1.0048118e-07
1.0047769e-07
1.0047401e-07
1.0047022e-07
1.004662e-07
1.0046205e-07
1.0045763e-07
1.0045304e-07
1.0044815e-07
1.004431e-07
1.0043776e-07
1.0043199e-07
1.004254e-07
1.3568015e-10
4.950006e-09
4.0445597e-08
8.2743629e-08
9.8541897e-08
1.0193117e-07
1.0198143e-07
1.0172797e-07
1.0161792e-07
1.0158738e-07
1.015856e-07
1.0158461e-07
1.015811e-07
1.0157824e-07
1.0157794e-07
1.0157695e-07
1.0157346e-07
1.0156912e-07
1.015648e-07
1.0156097e-07
1.015576e-07
1.0155478e-07
1.0155233e-07
1.0154991e-07
1.0154742e-07
1.0154495e-07
1.0154249e-07
1.015401e-07
1.0153773e-07
1.015354e-07
1.0153309e-07
1.0153082e-07
1.0152855e-07
1.0152632e-07
1.0152408e-07
1.0152188e-07
1.0151966e-07
1.0151748e-07
1.0151526e-07
1.0151309e-07
1.0151087e-07
1.0150867e-07
1.0150643e-07
1.0150421e-07
1.0150195e-07
1.0149971e-07
1.0149742e-07
1.0149515e-07
1.0149283e-07
1.0149052e-07
1.0148816e-07
1.0148582e-07
1.0148341e-07
1.0148102e-07
1.0147854e-07
1.0147605e-07
1.0147342e-07
1.0147076e-07
1.0146798e-07
1.0146518e-07
1.0146227e-07
1.0145937e-07
1.0145635e-07
1.0145333e-07
1.0145019e-07
1.0144702e-07
1.014437e-07
1.0144033e-07
1.0143679e-07
1.0143319e-07
1.0142938e-07
1.0142547e-07
1.0142131e-07
1.0141703e-07
1.0141244e-07
1.0140771e-07
1.0140262e-07
1.0139738e-07
1.0139185e-07
1.0138592e-07
1.0137906e-07
1.7690675e-10
6.6889385e-09
4.7908457e-08
8.8608889e-08
1.010521e-07
1.0307496e-07
1.0289909e-07
1.0268473e-07
1.0261175e-07
1.0259793e-07
1.0259747e-07
1.0259531e-07
1.0259119e-07
1.0258865e-07
1.0258868e-07
1.0258715e-07
1.0258312e-07
1.0257847e-07
1.0257408e-07
1.0257028e-07
1.0256696e-07
1.0256421e-07
1.0256169e-07
1.0255916e-07
1.0255659e-07
1.0255404e-07
1.0255153e-07
1.0254906e-07
1.0254662e-07
1.0254423e-07
1.0254186e-07
1.0253953e-07
1.025372e-07
1.0253491e-07
1.0253262e-07
1.0253036e-07
1.0252808e-07
1.0252585e-07
1.0252358e-07
1.0252136e-07
1.0251908e-07
1.0251684e-07
1.0251454e-07
1.0251228e-07
1.0250997e-07
1.0250769e-07
1.0250535e-07
1.0250304e-07
1.0250067e-07
1.0249832e-07
1.024959e-07
1.0249352e-07
1.0249107e-07
1.0248864e-07
1.0248613e-07
1.024836e-07
1.0248094e-07
1.0247824e-07
1.024754e-07
1.0247256e-07
1.024696e-07
1.0246664e-07
1.0246357e-07
1.0246051e-07
1.0245731e-07
1.0245409e-07
1.0245071e-07
1.0244729e-07
1.0244368e-07
1.0244002e-07
1.0243615e-07
1.0243219e-07
1.0242795e-07
1.024236e-07
1.0241895e-07
1.0241413e-07
1.0240893e-07
1.0240358e-07
1.0239797e-07
1.0239198e-07
1.0238495e-07
2.3595036e-10
9.0546802e-09
5.6172846e-08
9.3954474e-08
1.030974e-07
1.0414005e-07
1.0387344e-07
1.0371151e-07
1.0366743e-07
1.0366338e-07
1.0366239e-07
1.0365929e-07
1.0365492e-07
1.036529e-07
1.0365325e-07
1.0365114e-07
1.0364661e-07
1.0364169e-07
1.0363729e-07
1.0363362e-07
1.0363045e-07
1.0362779e-07
1.0362524e-07
1.0362265e-07
1.0362004e-07
1.0361747e-07
1.0361494e-07
1.0361245e-07
1.0360999e-07
1.0360758e-07
1.0360519e-07
1.0360283e-07
1.0360049e-07
1.0359818e-07
1.0359587e-07
1.035936e-07
1.0359131e-07
1.0358906e-07
1.0358678e-07
1.0358454e-07
1.0358227e-07
1.0358001e-07
1.0357771e-07
1.0357544e-07
1.0357312e-07
1.0357084e-07
1.035685e-07
1.0356618e-07
1.0356381e-07
1.0356146e-07
1.0355904e-07
1.0355666e-07
1.035542e-07
1.0355178e-07
1.0354928e-07
1.0354677e-07
1.0354411e-07
1.0354143e-07
1.0353859e-07
1.0353575e-07
1.0353279e-07
1.0352985e-07
1.0352678e-07
1.0352372e-07
1.0352052e-07
1.0351732e-07
1.0351393e-07
1.0351053e-07
1.0350692e-07
1.0350328e-07
1.0349941e-07
1.0349547e-07
1.0349124e-07
1.0348691e-07
1.0348226e-07
1.0347747e-07
1.0347226e-07
1.0346689e-07
1.0346128e-07
1.0345537e-07
1.0344828e-07
3.23083e-10
1.2273756e-08
6.4998857e-08
9.8714215e-08
1.0485652e-07
1.0519612e-07
1.049186e-07
1.0480998e-07
1.0478844e-07
1.0478776e-07
1.0478567e-07
1.0478202e-07
1.0477766e-07
1.0477632e-07
1.0477701e-07
1.0477435e-07
1.047693e-07
1.0476415e-07
1.0475984e-07
1.0475639e-07
1.0475347e-07
1.0475094e-07
1.047484e-07
1.0474583e-07
1.0474324e-07
1.0474071e-07
1.047382e-07
1.0473574e-07
1.0473331e-07
1.0473093e-07
1.0472856e-07
1.0472624e-07
1.0472393e-07
1.0472165e-07
1.0471937e-07
1.0471714e-07
1.0471488e-07
1.0471267e-07
1.0471043e-07
1.0470822e-07
1.0470598e-07
1.0470377e-07
1.0470151e-07
1.0469929e-07
1.0469701e-07
1.0469478e-07
1.0469247e-07
1.0469022e-07
1.0468788e-07
1.0468559e-07
1.0468321e-07
1.0468089e-07
1.0467847e-07
1.0467612e-07
1.0467367e-07
1.0467124e-07
1.0466865e-07
1.0466605e-07
1.0466326e-07
1.046605e-07
1.0465759e-07
1.0465473e-07
1.0465171e-07
1.0464875e-07
1.046456e-07
1.046425e-07
1.0463917e-07
1.0463586e-07
1.0463232e-07
1.0462879e-07
1.04625e-07
1.0462119e-07
1.0461705e-07
1.0461284e-07
1.0460828e-07
1.0460363e-07
1.0459853e-07
1.0459326e-07
1.0458779e-07
1.0458211e-07
1.045751e-07
4.5650209e-10
1.6658297e-08
7.4228408e-08
1.028378e-07
1.0637774e-07
1.0628239e-07
1.0604801e-07
1.0598449e-07
1.0597775e-07
1.0597658e-07
1.0597355e-07
1.0596975e-07
1.0596561e-07
1.0596503e-07
1.0596608e-07
1.0596294e-07
1.0595737e-07
1.0595206e-07
1.0594798e-07
1.0594485e-07
1.0594227e-07
1.0593991e-07
1.0593746e-07
1.0593497e-07
1.0593247e-07
1.0593003e-07
1.0592761e-07
1.0592524e-07
1.059229e-07
1.0592061e-07
1.0591833e-07
1.059161e-07
1.0591387e-07
1.0591169e-07
1.059095e-07
1.0590735e-07
1.0590519e-07
1.0590306e-07
1.0590092e-07
1.0589881e-07
1.0589666e-07
1.0589455e-07
1.0589239e-07
1.0589026e-07
1.0588809e-07
1.0588596e-07
1.0588377e-07
1.0588161e-07
1.0587939e-07
1.0587721e-07
1.0587494e-07
1.0587273e-07
1.0587043e-07
1.0586819e-07
1.0586587e-07
1.0586358e-07
1.0586113e-07
1.0585867e-07
1.0585601e-07
1.058534e-07
1.0585063e-07
1.0584792e-07
1.0584504e-07
1.0584223e-07
1.0583924e-07
1.0583629e-07
1.0583312e-07
1.0582998e-07
1.0582662e-07
1.0582328e-07
1.0581969e-07
1.0581609e-07
1.0581218e-07
1.0580819e-07
1.0580386e-07
1.0579946e-07
1.0579463e-07
1.0578959e-07
1.0578441e-07
1.057791e-07
1.0577238e-07
6.7112432e-10
2.2636162e-08
8.4112882e-08
1.0535313e-07
1.0773046e-07
1.0743614e-07
1.0726987e-07
1.0723979e-07
1.0723869e-07
1.0723652e-07
1.0723316e-07
1.0722956e-07
1.0722579e-07
1.0722602e-07
1.0722745e-07
1.0722394e-07
1.0721787e-07
1.0721258e-07
1.0720891e-07
1.0720624e-07
1.0720402e-07
1.0720188e-07
1.0719959e-07
1.0719726e-07
1.0719492e-07
1.0719265e-07
1.0719039e-07
1.0718819e-07
1.07186e-07
1.0718388e-07
1.0718176e-07
1.0717969e-07
1.0717762e-07
1.0717559e-07
1.0717356e-07
1.0717157e-07
1.0716956e-07
1.071676e-07
1.0716561e-07
1.0716366e-07
1.0716169e-07
1.0715974e-07
1.0715775e-07
1.0715579e-07
1.071538e-07
1.0715183e-07
1.0714983e-07
1.0714784e-07
1.0714581e-07
1.071438e-07
1.0714173e-07
1.0713969e-07
1.0713759e-07
1.0713554e-07
1.0713343e-07
1.0713134e-07
1.0712913e-07
1.0712688e-07
1.0712445e-07
1.0712206e-07
1.0711952e-07
1.0711705e-07
1.0711441e-07
1.0711186e-07
1.071091e-07
1.0710642e-07
1.0710351e-07
1.0710065e-07
1.0709758e-07
1.0709454e-07
1.0709128e-07
1.0708801e-07
1.0708445e-07
1.0708081e-07
1.0707686e-07
1.0707286e-07
1.0706848e-07
1.0706384e-07
1.0705911e-07
1.0705438e-07
1.0704817e-07
1.0732413e-09
3.0780155e-08
9.3240044e-08
1.0778131e-07
1.0894009e-07
1.0867187e-07
1.0858843e-07
1.0857986e-07
1.085787e-07
1.085758e-07
1.0857258e-07
1.0856943e-07
1.0856621e-07
1.0856731e-07
1.085691e-07
1.0856527e-07
1.0855876e-07
1.0855384e-07
1.0855086e-07
1.0854879e-07
1.0854695e-07
1.0854502e-07
1.0854295e-07
1.0854087e-07
1.0853879e-07
1.0853677e-07
1.0853476e-07
1.0853281e-07
1.0853087e-07
1.0852899e-07
1.0852712e-07
1.0852529e-07
1.0852346e-07
1.0852167e-07
1.0851988e-07
1.0851813e-07
1.0851637e-07
1.0851463e-07
1.085129e-07
1.0851118e-07
1.0850946e-07
1.0850775e-07
1.0850603e-07
1.0850431e-07
1.0850258e-07
1.0850087e-07
1.0849913e-07
1.084974e-07
1.0849564e-07
1.0849389e-07
1.0849211e-07
1.0849034e-07
1.0848853e-07
1.0848675e-07
1.0848494e-07
1.0848315e-07
1.0848125e-07
1.0847932e-07
1.0847726e-07
1.0847515e-07
1.0847296e-07
1.0847083e-07
1.0846854e-07
1.0846634e-07
1.0846396e-07
1.0846165e-07
1.0845916e-07
1.0845669e-07
1.0845407e-07
1.0845144e-07
1.0844866e-07
1.0844587e-07
1.0844282e-07
1.0843968e-07
1.0843629e-07
1.0843286e-07
1.0842912e-07
1.0842511e-07
1.0842102e-07
1.0841709e-07
1.0841168e-07
2.1795214e-09
4.1777107e-08
1.0161462e-07
1.0997946e-07
1.1020703e-07
1.1003803e-07
1.1000918e-07
1.1000777e-07
1.1000586e-07
1.1000301e-07
1.1000037e-07
1.0999787e-07
1.099954e-07
1.0999747e-07
1.0999967e-07
1.0999514e-07
1.0998846e-07
1.0998459e-07
1.0998261e-07
1.0998117e-07
1.0997966e-07
1.0997801e-07
1.0997627e-07
1.0997455e-07
1.0997283e-07
1.0997118e-07
1.0996953e-07
1.0996794e-07
1.0996635e-07
1.0996482e-07
1.0996328e-07
1.099618e-07
1.0996031e-07
1.0995886e-07
1.0995741e-07
1.0995599e-07
1.0995457e-07
1.0995317e-07
1.0995177e-07
1.0995039e-07
1.0994902e-07
1.0994764e-07
1.0994628e-07
1.0994491e-07
1.0994354e-07
1.0994217e-07
1.099408e-07
1.0993943e-07
1.0993805e-07
1.0993667e-07
1.0993527e-07
1.0993388e-07
1.0993246e-07
1.0993107e-07
1.0992967e-07
1.0992829e-07
1.0992682e-07
1.0992533e-07
1.0992371e-07
1.0992208e-07
1.099203e-07
1.0991864e-07
1.099168e-07
1.0991515e-07
1.0991326e-07
1.099115e-07
1.0990953e-07
1.0990767e-07
1.099056e-07
1.099036e-07
1.099014e-07
1.098993e-07
1.098969e-07
1.0989452e-07
1.0989183e-07
1.0988922e-07
1.0988631e-07
1.0988326e-07
1.0987998e-07
1.0987712e-07
1.0987286e-07
4.4700206e-09
5.7993404e-08
1.0878762e-07
1.1175452e-07
1.1160051e-07
1.1153398e-07
1.1153035e-07
1.1152948e-07
1.1152759e-07
1.115252e-07
1.1152345e-07
1.1152169e-07
1.1152017e-07
1.115231e-07
1.1152578e-07
1.1151998e-07
1.1151383e-07
1.1151193e-07
1.1151117e-07
1.115103e-07
1.1150914e-07
1.1150792e-07
1.1150665e-07
1.1150545e-07
1.1150423e-07
1.1150309e-07
1.1150191e-07
1.1150082e-07
1.114997e-07
1.1149865e-07
1.1149757e-07
1.1149656e-07
1.1149552e-07
1.1149454e-07
1.1149353e-07
1.1149258e-07
1.1149159e-07
1.1149066e-07
1.114897e-07
1.1148879e-07
1.1148785e-07
1.1148696e-07
1.1148603e-07
1.1148514e-07
1.1148422e-07
1.1148335e-07
1.1148243e-07
1.1148156e-07
1.1148064e-07
1.1147977e-07
1.1147885e-07
1.1147797e-07
1.1147706e-07
1.1147619e-07
1.114753e-07
1.1147447e-07
1.1147357e-07
1.1147268e-07
1.1147166e-07
1.1147062e-07
1.1146942e-07
1.1146832e-07
1.1146714e-07
1.1146614e-07
1.1146492e-07
1.1146381e-07
1.1146255e-07
1.1146142e-07
1.1146012e-07
1.1145888e-07
1.1145748e-07
1.1145619e-07
1.1145471e-07
1.1145326e-07
1.1145155e-07
1.1144996e-07
1.1144815e-07
1.1144631e-07
1.1144415e-07
1.114426e-07
1.1143984e-07
8.498255e-09
8.1635695e-08
1.134835e-07
1.1331604e-07
1.1314947e-07
1.1314025e-07
1.1314133e-07
1.131404e-07
1.1313964e-07
1.1313787e-07
1.1313745e-07
1.1313639e-07
1.1313609e-07
1.131384e-07
1.1314135e-07
1.1313568e-07
1.1313135e-07
1.1313168e-07
1.1313206e-07
1.1313168e-07
1.1313114e-07
1.1313055e-07
1.1312999e-07
1.1312944e-07
1.1312891e-07
1.1312839e-07
1.1312789e-07
1.131274e-07
1.1312693e-07
1.1312648e-07
1.1312602e-07
1.131256e-07
1.1312517e-07
1.1312477e-07
1.1312435e-07
1.1312398e-07
1.1312358e-07
1.1312324e-07
1.1312284e-07
1.1312253e-07
1.1312215e-07
1.1312185e-07
1.1312149e-07
1.131212e-07
1.1312085e-07
1.1312058e-07
1.1312024e-07
1.1311999e-07
1.1311966e-07
1.1311942e-07
1.1311909e-07
1.1311887e-07
1.1311854e-07
1.1311834e-07
1.1311804e-07
1.1311789e-07
1.1311763e-07
1.1311751e-07
1.1311723e-07
1.1311708e-07
1.1311668e-07
1.1311645e-07
1.1311597e-07
1.1311574e-07
1.1311519e-07
1.1311494e-07
1.1311446e-07
1.131143e-07
1.1311383e-07
1.1311363e-07
1.1311313e-07
1.1311295e-07
1.1311249e-07
1.1311226e-07
1.1311168e-07
1.131114e-07
1.1311082e-07
1.1311047e-07
1.131097e-07
1.131096e-07
1.1310866e-07
8.4254481e-08
8.4254507e-08
8.4256044e-08
8.4255835e-08
8.425621e-08
8.4256347e-08
8.4256581e-08
8.4256788e-08
8.425701e-08
8.4257233e-08
8.4257465e-08
8.4257703e-08
8.4257951e-08
8.4258204e-08
8.4258465e-08
8.4258725e-08
8.4258991e-08
8.4259251e-08
8.4259515e-08
8.425977e-08
8.4260026e-08
8.4260272e-08
8.4260518e-08
8.4260756e-08
8.4260994e-08
8.4261228e-08
8.4261465e-08
8.4261697e-08
8.4261927e-08
8.4262144e-08
8.4262346e-08
8.4262527e-08
8.4262686e-08
8.4262824e-08
8.4262943e-08
8.4263047e-08
8.4263135e-08
8.4263207e-08
8.4263259e-08
8.4263291e-08
8.42633e-08
8.4263289e-08
8.4263255e-08
8.4263203e-08
8.4263133e-08
8.4263049e-08
8.426295e-08
8.4262841e-08
8.4262714e-08
8.4262572e-08
8.4262413e-08
8.4262247e-08
8.4262089e-08
8.4261966e-08
8.4261891e-08
8.4261877e-08
8.4261949e-08
8.426226e-08
8.4263247e-08
8.4265806e-08
8.4271109e-08
8.4279384e-08
8.4286235e-08
8.4274403e-08
8.419812e-08
8.3957439e-08
8.3361511e-08
8.2084867e-08
7.9631045e-08
7.5337511e-08
6.8484232e-08
5.858668e-08
4.5888153e-08
3.1805298e-08
1.8743023e-08
8.9539528e-09
3.2521053e-09
8.3161088e-10
1.901166e-10
1.035088e-10
1.3267035e-10
8.4473051e-08
8.4473033e-08
8.4474117e-08
8.4474042e-08
8.4474352e-08
8.447451e-08
8.4474739e-08
8.4474946e-08
8.447517e-08
8.4475393e-08
8.4475628e-08
8.4475867e-08
8.4476117e-08
8.447637e-08
8.4476632e-08
8.4476892e-08
8.4477158e-08
8.4477418e-08
8.4477682e-08
8.4477938e-08
8.4478195e-08
8.4478442e-08
8.447869e-08
8.4478929e-08
8.4479171e-08
8.4479406e-08
8.4479646e-08
8.447988e-08
8.4480113e-08
8.448033e-08
8.4480535e-08
8.4480713e-08
8.4480874e-08
8.4481009e-08
8.4481129e-08
8.448123e-08
8.4481319e-08
8.4481387e-08
8.448144e-08
8.4481469e-08
8.4481477e-08
8.4481463e-08
8.4481428e-08
8.4481373e-08
8.4481301e-08
8.4481215e-08
8.4481116e-08
8.4481004e-08
8.4480878e-08
8.4480734e-08
8.4480575e-08
8.448041e-08
8.4480254e-08
8.4480132e-08
8.448006e-08
8.4480048e-08
8.4480124e-08
8.4480431e-08
8.4481383e-08
8.4483831e-08
8.448893e-08
8.4497065e-08
8.4504572e-08
8.4496251e-08
8.4430954e-08
8.421744e-08
8.3678981e-08
8.2509439e-08
8.0233035e-08
7.6198564e-08
6.9668278e-08
6.0086788e-08
4.7568364e-08
3.3398412e-08
1.9965461e-08
9.6768282e-09
3.5577617e-09
9.0982447e-10
1.9799159e-10
9.4391081e-11
1.1974342e-10
8.4703163e-08
8.4703066e-08
8.4704035e-08
8.4703985e-08
8.4704281e-08
8.4704447e-08
8.4704674e-08
8.4704882e-08
8.4705108e-08
8.4705332e-08
8.4705571e-08
8.470581e-08
8.4706065e-08
8.4706319e-08
8.4706584e-08
8.4706845e-08
8.4707114e-08
8.4707375e-08
8.4707643e-08
8.4707899e-08
8.470816e-08
8.4708409e-08
8.4708662e-08
8.4708902e-08
8.4709149e-08
8.4709386e-08
8.470963e-08
8.4709865e-08
8.4710102e-08
8.471032e-08
8.4710526e-08
8.4710704e-08
8.4710864e-08
8.4710998e-08
8.4711116e-08
8.4711216e-08
8.4711304e-08
8.4711373e-08
8.4711425e-08
8.4711454e-08
8.4711463e-08
8.4711449e-08
8.4711415e-08
8.4711361e-08
8.4711292e-08
8.4711206e-08
8.4711109e-08
8.4710999e-08
8.4710876e-08
8.4710735e-08
8.471058e-08
8.4710415e-08
8.471026e-08
8.4710135e-08
8.4710062e-08
8.4710044e-08
8.4710092e-08
8.471029e-08
8.4710963e-08
8.4712867e-08
8.4717232e-08
8.4725064e-08
8.4734645e-08
8.4735267e-08
8.4694548e-08
8.4536092e-08
8.4105197e-08
8.3123592e-08
8.1142686e-08
7.7522199e-08
7.1491531e-08
6.2385725e-08
5.0127003e-08
3.5807975e-08
2.1797364e-08
1.0745689e-08
4.0051129e-09
1.0255554e-09
2.107299e-10
8.7526987e-11
1.0926255e-10
8.4945798e-08
8.4945698e-08
8.4946538e-08
8.4946521e-08
8.4946799e-08
8.4946972e-08
8.4947197e-08
8.4947405e-08
8.4947632e-08
8.4947855e-08
8.4948097e-08
8.4948337e-08
8.4948594e-08
8.4948848e-08
8.4949116e-08
8.4949376e-08
8.4949647e-08
8.4949907e-08
8.4950177e-08
8.4950434e-08
8.4950698e-08
8.4950948e-08
8.4951205e-08
8.4951448e-08
8.4951698e-08
8.4951938e-08
8.4952185e-08
8.4952422e-08
8.4952659e-08
8.4952878e-08
8.4953082e-08
8.495326e-08
8.4953416e-08
8.4953549e-08
8.4953665e-08
8.4953764e-08
8.495385e-08
8.4953919e-08
8.4953971e-08
8.4954001e-08
8.4954009e-08
8.4953996e-08
8.4953962e-08
8.4953909e-08
8.495384e-08
8.4953756e-08
8.4953659e-08
8.4953551e-08
8.4953428e-08
8.4953291e-08
8.4953137e-08
8.4952974e-08
8.4952818e-08
8.4952692e-08
8.4952618e-08
8.4952601e-08
8.4952639e-08
8.4952785e-08
8.4953285e-08
8.495479e-08
8.4958484e-08
8.4965665e-08
8.4975819e-08
8.498145e-08
8.4956981e-08
8.4838423e-08
8.4490731e-08
8.3662428e-08
8.1934302e-08
7.8685025e-08
7.3126893e-08
6.4506189e-08
5.256588e-08
3.8188928e-08
2.3675247e-08
1.1879941e-08
4.4949097e-09
1.1566916e-09
2.2540321e-10
8.1488361e-11
9.9460597e-11
8.5201816e-08
8.5201721e-08
8.520246e-08
8.5202475e-08
8.5202738e-08
8.5202916e-08
8.5203139e-08
8.5203348e-08
8.5203576e-08
8.5203799e-08
8.5204043e-08
8.5204283e-08
8.5204543e-08
8.5204796e-08
8.5205066e-08
8.5205325e-08
8.5205597e-08
8.5205856e-08
8.5206128e-08
8.5206385e-08
8.5206652e-08
8.5206904e-08
8.5207165e-08
8.520741e-08
8.5207664e-08
8.5207905e-08
8.5208155e-08
8.5208393e-08
8.520863e-08
8.5208848e-08
8.520905e-08
8.5209225e-08
8.520938e-08
8.520951e-08
8.5209624e-08
8.5209721e-08
8.5209806e-08
8.5209875e-08
8.5209927e-08
8.5209957e-08
8.5209966e-08
8.5209953e-08
8.520992e-08
8.5209868e-08
8.52098e-08
8.5209717e-08
8.5209621e-08
8.5209514e-08
8.5209394e-08
8.5209259e-08
8.5209108e-08
8.5208946e-08
8.5208789e-08
8.5208661e-08
8.5208585e-08
8.5208567e-08
8.52086e-08
8.5208703e-08
8.5209047e-08
8.5210172e-08
8.5213183e-08
8.5219574e-08
8.5229857e-08
8.5239402e-08
8.5228973e-08
8.5146474e-08
8.487631e-08
8.4194521e-08
8.2713918e-08
7.9837837e-08
7.4770571e-08
6.6678827e-08