/*--------------------------------*- C++ -*----------------------------------*\
| =========                 |                                                 |
| \\      /  F ield         | OpenFOAM: The Open Source CFD Toolbox           |
|  \\    /   O peration     | Version:  v2006                                 |
|   \\  /    A nd           | Website:  www.openfoam.com                      |
|    \\/     M anipulation  |                                                 |
\*---------------------------------------------------------------------------*/
FoamFile
{
    version     2.0;
    format      ascii;
    class       volScalarField;
    location    "10000";
    object      nutMean;
}
// * * * * * * * * * * * * * * * * * * * * * * * * * * * * * * * * * * * * * //

dimensions      [0 2 -1 0 0 0 0];


internalField   nonuniform List<scalar> 
102907
(
3.1938843e-11
2.691779e-10
4.108003e-09
2.0394736e-08
4.7762176e-08
7.1550941e-08
8.5014153e-08
9.0796953e-08
9.2744319e-08
9.3181539e-08
9.3166717e-08
9.3082756e-08
9.3026217e-08
9.3000622e-08
9.2992367e-08
9.2991874e-08
9.2993128e-08
9.2993739e-08
9.2993947e-08
9.2994204e-08
9.2994456e-08
9.299456e-08
9.2994472e-08
9.2994255e-08
9.2994001e-08
9.2993764e-08
9.2993575e-08
9.2993448e-08
9.2993364e-08
9.299329e-08
9.2993208e-08
9.2993118e-08
9.2993019e-08
9.2992919e-08
9.2992815e-08
9.2992713e-08
9.2992602e-08
9.2992498e-08
9.2992379e-08
9.2992238e-08
9.2992094e-08
9.2991941e-08
9.2991779e-08
9.2991607e-08
9.299143e-08
9.2991249e-08
9.2991068e-08
9.2990885e-08
9.2990701e-08
9.2990515e-08
9.2990327e-08
9.2990134e-08
9.2989935e-08
9.2989727e-08
9.2989518e-08
9.2989305e-08
9.2989073e-08
9.2988788e-08
9.2988433e-08
9.298802e-08
9.2987573e-08
9.2987102e-08
9.2986621e-08
9.2986137e-08
9.2985657e-08
9.2985182e-08
9.2984712e-08
9.2984246e-08
9.2983781e-08
9.2983317e-08
9.298285e-08
9.2982378e-08
9.2981899e-08
9.2981416e-08
9.2980935e-08
9.2980466e-08
9.2980006e-08
9.2979556e-08
9.2979069e-08
9.2978496e-08
9.2977866e-08
3.3416348e-11
3.4122973e-10
5.1985105e-09
2.4287937e-08
5.3319631e-08
7.6070968e-08
8.7774443e-08
9.231466e-08
9.3654748e-08
9.3858125e-08
9.3782284e-08
9.3697186e-08
9.3650914e-08
9.3632659e-08
9.3627954e-08
9.3628918e-08
9.3629656e-08
9.362957e-08
9.3629404e-08
9.3629401e-08
9.3629341e-08
9.3629061e-08
9.3628595e-08
9.3628046e-08
9.3627486e-08
9.3626959e-08
9.3626492e-08
9.3626093e-08
9.3625734e-08
9.3625389e-08
9.362504e-08
9.3624688e-08
9.362433e-08
9.3623974e-08
9.3623611e-08
9.3623254e-08
9.3622886e-08
9.3622526e-08
9.3622152e-08
9.3621757e-08
9.3621358e-08
9.362095e-08
9.3620532e-08
9.3620106e-08
9.3619671e-08
9.3619231e-08
9.3618786e-08
9.3618337e-08
9.3617884e-08
9.3617426e-08
9.3616964e-08
9.3616497e-08
9.3616022e-08
9.3615538e-08
9.3615046e-08
9.361456e-08
9.3614057e-08
9.3613499e-08
9.3612856e-08
9.3612146e-08
9.361139e-08
9.3610599e-08
9.3609787e-08
9.3608963e-08
9.3608134e-08
9.3607299e-08
9.3606459e-08
9.360561e-08
9.360475e-08
9.3603874e-08
9.3602979e-08
9.360206e-08
9.3601113e-08
9.3600137e-08
9.3599135e-08
9.3598116e-08
9.3597076e-08
9.3596017e-08
9.3594879e-08
9.3593598e-08
9.3592192e-08
3.5424116e-11
4.3206923e-10
6.5094403e-09
2.8561146e-08
5.8834534e-08
8.0183165e-08
9.0112557e-08
9.3619672e-08
9.4479597e-08
9.4519461e-08
9.4413279e-08
9.4336022e-08
9.4300418e-08
9.4287953e-08
9.428679e-08
9.4287739e-08
9.4287701e-08
9.4287126e-08
9.4286688e-08
9.4286381e-08
9.4285947e-08
9.4285297e-08
9.4284492e-08
9.428363e-08
9.4282774e-08
9.4281964e-08
9.4281224e-08
9.4280557e-08
9.4279931e-08
9.427932e-08
9.4278708e-08
9.4278099e-08
9.4277486e-08
9.4276877e-08
9.4276263e-08
9.4275655e-08
9.4275036e-08
9.4274427e-08
9.4273802e-08
9.4273159e-08
9.4272512e-08
9.4271856e-08
9.4271191e-08
9.4270515e-08
9.4269831e-08
9.4269138e-08
9.4268439e-08
9.4267732e-08
9.4267018e-08
9.4266297e-08
9.4265571e-08
9.4264838e-08
9.4264099e-08
9.426335e-08
9.4262592e-08
9.4261832e-08
9.426106e-08
9.4260236e-08
9.4259321e-08
9.4258321e-08
9.4257264e-08
9.4256161e-08
9.4255027e-08
9.4253871e-08
9.4252701e-08
9.4251518e-08
9.4250319e-08
9.4249101e-08
9.4247858e-08
9.4246585e-08
9.4245277e-08
9.4243927e-08
9.4242527e-08
9.4241076e-08
9.423957e-08
9.4238022e-08
9.4236421e-08
9.4234775e-08
9.4233013e-08
9.4231052e-08
9.4228903e-08
3.8200496e-11
5.4989904e-10
8.1327108e-09
3.3354645e-08
6.4386994e-08
8.3998251e-08
9.2198149e-08
9.4768068e-08
9.524814e-08
9.5181436e-08
9.5067596e-08
9.5003372e-08
9.4977372e-08
9.4970446e-08
9.4971078e-08
9.4971374e-08
9.4970612e-08
9.4969679e-08
9.4968989e-08
9.4968371e-08
9.4967579e-08
9.4966577e-08
9.4965445e-08
9.4964287e-08
9.4963151e-08
9.4962072e-08
9.4961072e-08
9.4960149e-08
9.4959264e-08
9.4958397e-08
9.4957531e-08
9.4956673e-08
9.4955812e-08
9.4954961e-08
9.4954103e-08
9.4953255e-08
9.4952394e-08
9.4951546e-08
9.495068e-08
9.4949801e-08
9.4948916e-08
9.4948021e-08
9.4947118e-08
9.4946205e-08
9.4945282e-08
9.4944349e-08
9.4943407e-08
9.4942455e-08
9.4941494e-08
9.4940522e-08
9.4939542e-08
9.4938557e-08
9.4937564e-08
9.4936563e-08
9.4935549e-08
9.4934528e-08
9.4933495e-08
9.4932417e-08
9.4931241e-08
9.4929966e-08
9.4928619e-08
9.4927217e-08
9.4925771e-08
9.4924297e-08
9.4922799e-08
9.4921282e-08
9.491974e-08
9.4918169e-08
9.4916559e-08
9.4914907e-08
9.4913202e-08
9.4911439e-08
9.4909606e-08
9.49077e-08
9.4905714e-08
9.4903656e-08
9.4901518e-08
9.4899307e-08
9.4896949e-08
9.4894339e-08
9.4891473e-08
4.1966196e-11
7.0313401e-10
1.0121168e-08
3.8620439e-08
6.9837858e-08
8.7453101e-08
9.4003697e-08
9.5784665e-08
9.5983021e-08
9.5857122e-08
9.5750744e-08
9.5701038e-08
9.5683016e-08
9.5681025e-08
9.5681694e-08
9.5681115e-08
9.5679793e-08
9.5678596e-08
9.5677661e-08
9.5676723e-08
9.5675579e-08
9.5674237e-08
9.5672803e-08
9.5671366e-08
9.5669963e-08
9.566863e-08
9.5667384e-08
9.5666216e-08
9.5665083e-08
9.566397e-08
9.5662861e-08
9.5661765e-08
9.5660667e-08
9.5659582e-08
9.5658491e-08
9.5657412e-08
9.5656319e-08
9.5655243e-08
9.5654145e-08
9.5653044e-08
9.5651932e-08
9.565081e-08
9.5649679e-08
9.5648539e-08
9.5647389e-08
9.5646228e-08
9.5645057e-08
9.5643873e-08
9.5642677e-08
9.5641469e-08
9.5640251e-08
9.5639023e-08
9.563779e-08
9.5636546e-08
9.5635288e-08
9.5634019e-08
9.5632738e-08
9.5631417e-08
9.5629995e-08
9.5628461e-08
9.5626839e-08
9.562515e-08
9.5623409e-08
9.5621631e-08
9.5619822e-08
9.5617987e-08
9.5616119e-08
9.5614212e-08
9.5612255e-08
9.5610242e-08
9.5608161e-08
9.5606007e-08
9.5603763e-08
9.5601427e-08
9.5598984e-08
9.5596442e-08
9.5593793e-08
9.5591046e-08
9.5588125e-08
9.5584901e-08
9.5581354e-08
4.7046262e-11
9.044163e-10
1.254635e-08
4.4329895e-08
7.5106601e-08
9.0515358e-08
9.5570772e-08
9.6705258e-08
9.6705995e-08
9.6556605e-08
9.646678e-08
9.6430072e-08
9.6420227e-08
9.6420437e-08
9.6420348e-08
9.6418966e-08
9.6417262e-08
9.6415851e-08
9.6414663e-08
9.6413403e-08
9.6411917e-08
9.641026e-08
9.6408543e-08
9.6406843e-08
9.640519e-08
9.640362e-08
9.6402144e-08
9.6400743e-08
9.6399376e-08
9.639803e-08
9.6396691e-08
9.6395368e-08
9.6394046e-08
9.6392739e-08
9.6391426e-08
9.6390129e-08
9.6388817e-08
9.6387526e-08
9.6386209e-08
9.63849e-08
9.6383571e-08
9.6382235e-08
9.638089e-08
9.6379537e-08
9.6378173e-08
9.6376798e-08
9.637541e-08
9.6374009e-08
9.6372594e-08
9.6371164e-08
9.6369721e-08
9.6368268e-08
9.6366805e-08
9.6365333e-08
9.6363845e-08
9.6362343e-08
9.6360828e-08
9.6359276e-08
9.6357626e-08
9.6355852e-08
9.6353972e-08
9.6352016e-08
9.6349996e-08
9.634793e-08
9.6345828e-08
9.6343693e-08
9.6341518e-08
9.6339296e-08
9.6337013e-08
9.6334662e-08
9.6332228e-08
9.6329705e-08
9.6327077e-08
9.6324336e-08
9.6321465e-08
9.6318468e-08
9.6315337e-08
9.6312085e-08
9.6308639e-08
9.6304839e-08
9.6300651e-08
5.3895102e-11
1.172718e-09
1.5484212e-08
5.0419383e-08
8.0109125e-08
9.3055292e-08
9.6933994e-08
9.7557917e-08
9.7434851e-08
9.7288456e-08
9.7218473e-08
9.719311e-08
9.7189706e-08
9.7190116e-08
9.7189076e-08
9.7187078e-08
9.7185118e-08
9.7183511e-08
9.7182064e-08
9.7180486e-08
9.7178675e-08
9.7176727e-08
9.7174749e-08
9.7172806e-08
9.717092e-08
9.7169131e-08
9.716744e-08
9.7165822e-08
9.7164235e-08
9.7162672e-08
9.7161118e-08
9.7159583e-08
9.7158051e-08
9.7156537e-08
9.7155017e-08
9.7153516e-08
9.7151999e-08
9.7150506e-08
9.7148985e-08
9.7147482e-08
9.7145952e-08
9.7144418e-08
9.7142874e-08
9.7141323e-08
9.7139759e-08
9.7138185e-08
9.7136596e-08
9.7134994e-08
9.7133375e-08
9.7131741e-08
9.7130089e-08
9.7128425e-08
9.712675e-08
9.7125064e-08
9.7123362e-08
9.7121644e-08
9.7119911e-08
9.7118147e-08
9.7116288e-08
9.7114296e-08
9.711218e-08
9.7109975e-08
9.7107696e-08
9.7105363e-08
9.7102986e-08
9.7100573e-08
9.7098113e-08
9.7095599e-08
9.7093014e-08
9.709035e-08
9.7087589e-08
9.7084726e-08
9.7081741e-08
9.7078626e-08
9.707536e-08
9.7071941e-08
9.7068362e-08
9.7064641e-08
9.706071e-08
9.7056381e-08
9.7051595e-08
6.3142169e-11
1.5375567e-09
1.9014205e-08
5.6801185e-08
8.4767457e-08
9.5394315e-08
9.8119497e-08
9.8366685e-08
9.8186451e-08
9.805884e-08
9.8007221e-08
9.7992862e-08
9.7992553e-08
9.7992159e-08
9.7990241e-08
9.798784e-08
9.7985691e-08
9.7983894e-08
9.7982187e-08
9.79803e-08
9.7978187e-08
9.7975975e-08
9.7973759e-08
9.7971592e-08
9.7969495e-08
9.7967507e-08
9.7965619e-08
9.7963801e-08
9.7962011e-08
9.7960249e-08
9.7958497e-08
9.7956767e-08
9.7955041e-08
9.7953337e-08
9.7951627e-08
9.7949939e-08
9.7948235e-08
9.7946556e-08
9.7944849e-08
9.7943167e-08
9.7941453e-08
9.7939737e-08
9.7938013e-08
9.793628e-08
9.7934535e-08
9.7932778e-08
9.7931006e-08
9.7929221e-08
9.7927416e-08
9.7925595e-08
9.7923754e-08
9.7921898e-08
9.7920027e-08
9.7918146e-08
9.7916249e-08
9.7914335e-08
9.7912404e-08
9.7910446e-08
9.79084e-08
9.7906214e-08
9.7903888e-08
9.7901456e-08
9.7898941e-08
9.7896363e-08
9.7893736e-08
9.7891066e-08
9.7888347e-08
9.7885568e-08
9.7882709e-08
9.7879761e-08
9.7876704e-08
9.787353e-08
9.7870222e-08
9.7866768e-08
9.7863143e-08
9.7859341e-08
9.7855353e-08
9.7851203e-08
9.7846834e-08
9.7842031e-08
9.7836693e-08
7.5631861e-11
2.0434586e-09
2.3212044e-08
6.3362699e-08
8.903366e-08
9.740487e-08
9.9174378e-08
9.916814e-08
9.8972642e-08
9.8871542e-08
9.8835841e-08
9.8830341e-08
9.8830503e-08
9.8829079e-08
9.8826504e-08
9.8823859e-08
9.8821558e-08
9.8819577e-08
9.8817615e-08
9.8815434e-08
9.8813049e-08
9.88106e-08
9.8808171e-08
9.8805804e-08
9.8803519e-08
9.8801357e-08
9.8799292e-08
9.8797292e-08
9.879532e-08
9.8793378e-08
9.8791447e-08
9.8789543e-08
9.8787643e-08
9.8785768e-08
9.8783888e-08
9.8782031e-08
9.8780159e-08
9.8778315e-08
9.8776442e-08
9.87746e-08
9.877272e-08
9.8770843e-08
9.8768957e-08
9.8767063e-08
9.8765156e-08
9.8763237e-08
9.8761303e-08
9.8759353e-08
9.8757384e-08
9.8755397e-08
9.8753387e-08
9.875136e-08
9.8749315e-08
9.8747259e-08
9.8745188e-08
9.87431e-08
9.8740995e-08
9.8738866e-08
9.8736657e-08
9.8734306e-08
9.8731797e-08
9.8729167e-08
9.8726441e-08
9.8723645e-08
9.8720792e-08
9.8717896e-08
9.8714945e-08
9.8711931e-08
9.870883e-08
9.8705631e-08
9.8702312e-08
9.8698864e-08
9.8695269e-08
9.8691515e-08
9.8687575e-08
9.8683435e-08
9.8679081e-08
9.8674549e-08
9.8669797e-08
9.866458e-08
9.8658747e-08
9.2467874e-11
2.7452294e-09
2.8143025e-08
6.9971736e-08
9.286621e-08
9.9132154e-08
1.0014602e-07
9.9984047e-08
9.9803003e-08
9.9728741e-08
9.9707781e-08
9.9706815e-08
9.9706169e-08
9.9703813e-08
9.9700835e-08
9.969803e-08
9.9695598e-08
9.9693445e-08
9.969124e-08
9.9688787e-08
9.9686163e-08
9.9683509e-08
9.9680895e-08
9.9678352e-08
9.9675909e-08
9.9673598e-08
9.9671379e-08
9.966922e-08
9.9667089e-08
9.966499e-08
9.9662904e-08
9.9660848e-08
9.9658797e-08
9.9656774e-08
9.9654745e-08
9.9652743e-08
9.9650726e-08
9.9648739e-08
9.9646722e-08
9.9644741e-08
9.9642719e-08
9.9640703e-08
9.9638678e-08
9.9636644e-08
9.9634598e-08
9.9632541e-08
9.9630467e-08
9.9628377e-08
9.9626267e-08
9.9624138e-08
9.9621984e-08
9.961981e-08
9.9617616e-08
9.9615409e-08
9.9613187e-08
9.9610951e-08
9.9608699e-08
9.9606426e-08
9.9604082e-08
9.9601597e-08
9.9598939e-08
9.9596142e-08
9.9593236e-08
9.959025e-08
9.9587204e-08
9.958411e-08
9.9580962e-08
9.9577747e-08
9.9574441e-08
9.9571029e-08
9.9567489e-08
9.9563808e-08
9.9559968e-08
9.955596e-08
9.9551754e-08
9.9547327e-08
9.9542661e-08
9.9537799e-08
9.9532724e-08
9.9527165e-08
9.9520901e-08
1.1518169e-10
3.6859648e-09
3.3866685e-08
7.6482949e-08
9.6179768e-08
1.0062278e-07
1.0107138e-07
1.0083359e-07
1.0068409e-07
1.0063336e-07
1.0062465e-07
1.0062445e-07
1.0062271e-07
1.0061969e-07
1.006165e-07
1.0061358e-07
1.0061104e-07
1.0060874e-07
1.0060631e-07
1.0060362e-07
1.0060079e-07
1.0059796e-07
1.0059519e-07
1.0059251e-07
1.0058994e-07
1.0058751e-07
1.0058516e-07
1.0058287e-07
1.0058061e-07
1.0057838e-07
1.0057616e-07
1.0057398e-07
1.0057181e-07
1.0056966e-07
1.0056751e-07
1.0056539e-07
1.0056325e-07
1.0056115e-07
1.0055901e-07
1.0055692e-07
1.0055478e-07
1.0055265e-07
1.0055051e-07
1.0054837e-07
1.0054621e-07
1.0054404e-07
1.0054185e-07
1.0053965e-07
1.0053743e-07
1.0053518e-07
1.0053291e-07
1.0053062e-07
1.0052831e-07
1.0052598e-07
1.0052363e-07
1.0052127e-07
1.0051891e-07
1.0051652e-07
1.0051407e-07
1.0051149e-07
1.0050872e-07
1.0050579e-07
1.0050274e-07
1.004996e-07
1.004964e-07
1.0049314e-07
1.0048984e-07
1.0048646e-07
1.0048299e-07
1.0047941e-07
1.004757e-07
1.0047183e-07
1.004678e-07
1.0046358e-07
1.0045917e-07
1.0045452e-07
1.004496e-07
1.0044447e-07
1.0043914e-07
1.0043332e-07
1.004267e-07
1.4627378e-10
4.9670628e-09
4.0458024e-08
8.2744653e-08
9.8540836e-08
1.019313e-07
1.0198265e-07
1.0172973e-07
1.0161992e-07
1.0158942e-07
1.0158741e-07
1.0158651e-07
1.0158384e-07
1.0158045e-07
1.0157715e-07
1.0157415e-07
1.0157155e-07
1.0156912e-07
1.0156648e-07
1.0156359e-07
1.015606e-07
1.0155764e-07
1.0155475e-07
1.0155196e-07
1.0154931e-07
1.0154679e-07
1.0154434e-07
1.0154195e-07
1.0153959e-07
1.0153726e-07
1.0153495e-07
1.0153267e-07
1.015304e-07
1.0152816e-07
1.0152592e-07
1.0152371e-07
1.0152148e-07
1.0151929e-07
1.0151707e-07
1.0151489e-07
1.0151266e-07
1.0151046e-07
1.0150823e-07
1.01506e-07
1.0150376e-07
1.0150151e-07
1.0149924e-07
1.0149696e-07
1.0149466e-07
1.0149233e-07
1.0148998e-07
1.014876e-07
1.014852e-07
1.0148278e-07
1.0148034e-07
1.014779e-07
1.0147545e-07
1.0147299e-07
1.0147048e-07
1.0146783e-07
1.01465e-07
1.0146198e-07
1.0145883e-07
1.0145558e-07
1.0145225e-07
1.0144888e-07
1.0144546e-07
1.0144197e-07
1.0143839e-07
1.0143469e-07
1.0143085e-07
1.0142686e-07
1.0142269e-07
1.0141833e-07
1.0141377e-07
1.0140896e-07
1.0140386e-07
1.0139854e-07
1.0139303e-07
1.0138705e-07
1.0138016e-07
1.895207e-10
6.7088015e-09
4.7920228e-08
8.8609754e-08
1.0105108e-07
1.0307518e-07
1.0290025e-07
1.0268634e-07
1.0261355e-07
1.0259974e-07
1.0259907e-07
1.0259708e-07
1.0259379e-07
1.0259026e-07
1.025869e-07
1.0258388e-07
1.0258125e-07
1.0257872e-07
1.0257591e-07
1.0257287e-07
1.0256977e-07
1.0256671e-07
1.0256374e-07
1.0256089e-07
1.0255819e-07
1.0255562e-07
1.0255312e-07
1.0255066e-07
1.0254823e-07
1.0254584e-07
1.0254347e-07
1.0254113e-07
1.0253881e-07
1.0253651e-07
1.0253421e-07
1.0253195e-07
1.0252966e-07
1.0252742e-07
1.0252515e-07
1.0252291e-07
1.0252064e-07
1.0251839e-07
1.0251611e-07
1.0251384e-07
1.0251155e-07
1.0250925e-07
1.0250694e-07
1.0250461e-07
1.0250226e-07
1.0249989e-07
1.024975e-07
1.0249507e-07
1.0249262e-07
1.0249015e-07
1.0248766e-07
1.0248517e-07
1.0248267e-07
1.0248019e-07
1.0247765e-07
1.0247499e-07
1.0247214e-07
1.024691e-07
1.0246589e-07
1.0246257e-07
1.0245918e-07
1.0245574e-07
1.0245225e-07
1.024487e-07
1.0244506e-07
1.0244131e-07
1.0243741e-07
1.0243335e-07
1.0242911e-07
1.0242468e-07
1.0242005e-07
1.0241517e-07
1.0240998e-07
1.0240453e-07
1.0239895e-07
1.0239292e-07
1.0238585e-07
2.5101145e-10
9.0776051e-09
5.6183627e-08
9.3954397e-08
1.0309626e-07
1.0414032e-07
1.038745e-07
1.0371296e-07
1.0366904e-07
1.0366496e-07
1.036638e-07
1.0366093e-07
1.0365737e-07
1.0365381e-07
1.0365046e-07
1.0364745e-07
1.0364485e-07
1.0364226e-07
1.0363933e-07
1.0363619e-07
1.0363301e-07
1.0362991e-07
1.0362692e-07
1.0362407e-07
1.0362137e-07
1.0361879e-07
1.0361627e-07
1.0361379e-07
1.0361134e-07
1.0360893e-07
1.0360654e-07
1.0360419e-07
1.0360184e-07
1.0359953e-07
1.0359722e-07
1.0359494e-07
1.0359264e-07
1.0359039e-07
1.035881e-07
1.0358586e-07
1.0358357e-07
1.0358132e-07
1.0357903e-07
1.0357676e-07
1.0357446e-07
1.0357216e-07
1.0356985e-07
1.0356752e-07
1.0356517e-07
1.0356279e-07
1.035604e-07
1.0355798e-07
1.0355552e-07
1.0355305e-07
1.0355055e-07
1.0354805e-07
1.0354555e-07
1.0354309e-07
1.0354059e-07
1.0353797e-07
1.0353515e-07
1.0353214e-07
1.0352893e-07
1.0352561e-07
1.035222e-07
1.0351875e-07
1.0351526e-07
1.0351172e-07
1.0350809e-07
1.0350434e-07
1.0350046e-07
1.0349642e-07
1.0349219e-07
1.0348777e-07
1.0348315e-07
1.034783e-07
1.0347311e-07
1.0346764e-07
1.0346208e-07
1.0345613e-07
1.0344901e-07
3.4114125e-10
1.2299827e-08
6.5009793e-08
9.8713414e-08
1.0485542e-07
1.0519648e-07
1.0491954e-07
1.0481127e-07
1.0478985e-07
1.0478912e-07
1.047869e-07
1.0478354e-07
1.0477995e-07
1.0477646e-07
1.0477317e-07
1.0477026e-07
1.0476774e-07
1.0476512e-07
1.0476213e-07
1.0475896e-07
1.0475576e-07
1.0475268e-07
1.0474973e-07
1.0474694e-07
1.0474431e-07
1.0474176e-07
1.0473927e-07
1.0473682e-07
1.047344e-07
1.0473202e-07
1.0472966e-07
1.0472734e-07
1.0472502e-07
1.0472275e-07
1.0472047e-07
1.0471822e-07
1.0471596e-07
1.0471374e-07
1.0471149e-07
1.0470929e-07
1.0470704e-07
1.0470484e-07
1.0470258e-07
1.0470036e-07
1.046981e-07
1.0469585e-07
1.0469358e-07
1.046913e-07
1.04689e-07
1.0468668e-07
1.0468433e-07
1.0468197e-07
1.0467956e-07
1.0467714e-07
1.0467469e-07
1.0467224e-07
1.0466979e-07
1.0466741e-07
1.04665e-07
1.0466248e-07
1.0465977e-07
1.0465686e-07
1.0465373e-07
1.0465046e-07
1.046471e-07
1.0464371e-07
1.0464029e-07
1.0463683e-07
1.0463329e-07
1.0462964e-07
1.0462585e-07
1.0462192e-07
1.0461779e-07
1.0461348e-07
1.0460897e-07
1.0460426e-07
1.045992e-07
1.0459383e-07
1.0458842e-07
1.045827e-07
1.0457567e-07
4.7842597e-10
1.6687396e-08
7.4238597e-08
1.0283551e-07
1.0637681e-07
1.062828e-07
1.0604878e-07
1.0598564e-07
1.0597893e-07
1.0597772e-07
1.059746e-07
1.0597115e-07
1.059677e-07
1.0596435e-07
1.0596121e-07
1.059585e-07
1.0595613e-07
1.0595353e-07
1.0595054e-07
1.0594739e-07
1.0594425e-07
1.0594126e-07
1.0593844e-07
1.0593579e-07
1.0593327e-07
1.0593082e-07
1.0592842e-07
1.0592606e-07
1.0592373e-07
1.0592144e-07
1.0591917e-07
1.0591694e-07
1.0591471e-07
1.0591252e-07
1.0591033e-07
1.0590818e-07
1.0590601e-07
1.0590388e-07
1.0590173e-07
1.0589962e-07
1.0589747e-07
1.0589536e-07
1.0589321e-07
1.0589109e-07
1.0588893e-07
1.0588679e-07
1.0588462e-07
1.0588245e-07
1.0588025e-07
1.0587805e-07
1.0587582e-07
1.0587357e-07
1.0587128e-07
1.0586898e-07
1.0586665e-07
1.0586431e-07
1.0586197e-07
1.0585971e-07
1.0585746e-07
1.0585514e-07
1.0585261e-07
1.0584988e-07
1.0584692e-07
1.0584379e-07
1.0584056e-07
1.058373e-07
1.0583403e-07
1.0583075e-07
1.0582739e-07
1.0582393e-07
1.0582034e-07
1.0581662e-07
1.0581272e-07
1.0580863e-07
1.0580435e-07
1.057999e-07
1.0579513e-07
1.0578998e-07
1.0578487e-07
1.0577954e-07
1.057728e-07
6.9881682e-10
2.2667858e-08
8.4116318e-08
1.0534938e-07
1.0772991e-07
1.0743656e-07
1.0727046e-07
1.0724085e-07
1.0723966e-07
1.0723749e-07
1.072341e-07
1.0723088e-07
1.0722768e-07
1.0722454e-07
1.0722167e-07
1.0721925e-07
1.0721711e-07
1.0721461e-07
1.0721168e-07
1.0720862e-07
1.0720564e-07
1.0720285e-07
1.0720025e-07
1.0719781e-07
1.0719547e-07
1.071932e-07
1.0719096e-07
1.0718876e-07
1.0718659e-07
1.0718446e-07
1.0718235e-07
1.0718028e-07
1.0717821e-07
1.0717618e-07
1.0717415e-07
1.0717216e-07
1.0717015e-07
1.0716818e-07
1.0716619e-07
1.0716424e-07
1.0716225e-07
1.0716031e-07
1.0715832e-07
1.0715638e-07
1.0715439e-07
1.0715243e-07
1.0715042e-07
1.0714844e-07
1.0714642e-07
1.0714441e-07
1.0714235e-07
1.0714031e-07
1.0713821e-07
1.071361e-07
1.0713396e-07
1.0713183e-07
1.0712969e-07
1.0712762e-07
1.0712558e-07
1.0712355e-07
1.0712131e-07
1.0711886e-07
1.0711616e-07
1.0711327e-07
1.0711027e-07
1.0710724e-07
1.0710421e-07
1.0710121e-07
1.0709816e-07
1.0709501e-07
1.0709174e-07
1.0708836e-07
1.0708481e-07
1.0708108e-07
1.0707718e-07
1.0707313e-07
1.0706883e-07
1.0706408e-07
1.0705943e-07
1.070547e-07
1.0704845e-07
1.1118462e-09
3.081381e-08
9.3241023e-08
1.0777883e-07
1.0893996e-07
1.0867222e-07
1.0858887e-07
1.0858088e-07
1.0857951e-07
1.0857668e-07
1.0857348e-07
1.085707e-07
1.0856784e-07
1.0856504e-07
1.0856257e-07
1.0856058e-07
1.0855876e-07
1.0855643e-07
1.0855363e-07
1.0855077e-07
1.0854808e-07
1.0854561e-07
1.0854334e-07
1.0854119e-07
1.0853912e-07
1.085371e-07
1.0853511e-07
1.0853317e-07
1.0853124e-07
1.0852935e-07
1.0852748e-07
1.0852565e-07
1.0852383e-07
1.0852204e-07
1.0852025e-07
1.0851849e-07
1.0851673e-07
1.08515e-07
1.0851325e-07
1.0851154e-07
1.0850981e-07
1.0850811e-07
1.0850637e-07
1.0850467e-07
1.0850294e-07
1.0850123e-07
1.0849949e-07
1.0849778e-07
1.0849602e-07
1.0849428e-07
1.084925e-07
1.0849073e-07
1.0848892e-07
1.0848711e-07
1.0848525e-07
1.0848342e-07
1.0848157e-07
1.0847979e-07
1.0847805e-07
1.0847637e-07
1.0847457e-07
1.0847251e-07
1.084702e-07
1.0846766e-07
1.08465e-07
1.0846232e-07
1.0845966e-07
1.0845707e-07
1.0845445e-07
1.0845174e-07
1.0844894e-07
1.0844604e-07
1.0844301e-07
1.0843981e-07
1.0843645e-07
1.0843299e-07
1.0842934e-07
1.0842523e-07
1.0842122e-07
1.0841731e-07
1.0841186e-07
2.2223945e-09
4.1816489e-08
1.0161275e-07
1.099777e-07
1.102072e-07
1.1003829e-07
1.1000958e-07
1.1000879e-07
1.1000656e-07
1.1000394e-07
1.1000129e-07
1.099991e-07
1.0999669e-07
1.099944e-07
1.0999248e-07
1.0999105e-07
1.0998968e-07
1.0998761e-07
1.0998506e-07
1.0998255e-07
1.099803e-07
1.0997829e-07
1.0997645e-07
1.099747e-07
1.09973e-07
1.0997135e-07
1.0996972e-07
1.0996812e-07
1.0996655e-07
1.09965e-07
1.0996348e-07
1.0996198e-07
1.099605e-07
1.0995905e-07
1.099576e-07
1.0995618e-07
1.0995476e-07
1.0995336e-07
1.0995196e-07
1.0995058e-07
1.0994919e-07
1.0994783e-07
1.0994645e-07
1.099451e-07
1.0994372e-07
1.0994236e-07
1.0994099e-07
1.0993963e-07
1.0993824e-07
1.0993687e-07
1.0993547e-07
1.0993409e-07
1.0993266e-07
1.0993125e-07
1.099298e-07
1.0992837e-07
1.0992693e-07
1.0992556e-07
1.0992423e-07
1.09923e-07
1.0992173e-07
1.0992022e-07
1.0991843e-07
1.099164e-07
1.0991422e-07
1.0991203e-07
1.0990988e-07
1.0990785e-07
1.0990582e-07
1.0990373e-07
1.0990156e-07
1.0989932e-07
1.0989698e-07
1.0989451e-07
1.098919e-07
1.0988923e-07
1.0988644e-07
1.0988327e-07
1.098801e-07
1.0987724e-07
1.0987297e-07
4.5117243e-09
5.8002794e-08
1.0878223e-07
1.11754e-07
1.1160079e-07
1.1153413e-07
1.1153053e-07
1.1152997e-07
1.1152797e-07
1.1152614e-07
1.1152428e-07
1.1152285e-07
1.1152107e-07
1.115195e-07
1.1151829e-07
1.1151753e-07
1.1151671e-07
1.1151507e-07
1.1151296e-07
1.1151104e-07
1.1150942e-07
1.1150801e-07
1.1150673e-07
1.115055e-07
1.1150431e-07
1.1150315e-07
1.1150201e-07
1.1150089e-07
1.1149979e-07
1.1149872e-07
1.1149766e-07
1.1149663e-07
1.1149561e-07
1.1149461e-07
1.1149362e-07
1.1149265e-07
1.1149168e-07
1.1149074e-07
1.1148979e-07
1.1148886e-07
1.1148793e-07
1.1148702e-07
1.1148611e-07
1.1148521e-07
1.114843e-07
1.1148341e-07
1.1148251e-07
1.1148163e-07
1.1148073e-07
1.1147985e-07
1.1147895e-07
1.1147806e-07
1.1147715e-07
1.1147625e-07
1.1147533e-07
1.1147443e-07
1.1147354e-07
1.114727e-07
1.1147191e-07
1.1147121e-07
1.1147056e-07
1.1146975e-07
1.1146864e-07
1.1146729e-07
1.1146577e-07
1.1146425e-07
1.114628e-07
1.1146149e-07
1.1146023e-07
1.1145893e-07
1.1145758e-07
1.1145618e-07
1.1145474e-07
1.1145321e-07
1.1145157e-07
1.1144992e-07
1.1144823e-07
1.1144628e-07
1.1144422e-07
1.114427e-07
1.1143991e-07
8.5188412e-09
8.1648942e-08
1.134828e-07
1.1331601e-07
1.1314961e-07
1.1314025e-07
1.131414e-07
1.1314059e-07
1.1313957e-07
1.131388e-07
1.1313796e-07
1.1313732e-07
1.1313653e-07
1.1313586e-07
1.1313545e-07
1.1313529e-07
1.1313506e-07
1.1313415e-07
1.1313293e-07
1.1313196e-07
1.131312e-07
1.1313057e-07
1.1313e-07
1.1312946e-07
1.1312894e-07
1.1312842e-07
1.1312792e-07
1.1312744e-07
1.1312696e-07
1.131265e-07
1.1312606e-07
1.1312562e-07
1.131252e-07
1.1312479e-07
1.1312439e-07
1.13124e-07
1.1312362e-07
1.1312325e-07
1.1312289e-07
1.1312254e-07
1.1312219e-07
1.1312186e-07
1.1312153e-07
1.1312121e-07
1.1312089e-07
1.1312059e-07
1.1312028e-07
1.1311999e-07
1.131197e-07
1.1311942e-07
1.1311914e-07
1.1311887e-07
1.1311859e-07
1.1311833e-07
1.1311806e-07
1.1311781e-07
1.1311757e-07
1.1311738e-07
1.1311722e-07
1.1311714e-07
1.1311711e-07
1.1311706e-07
1.131168e-07
1.1311634e-07
1.1311575e-07
1.1311518e-07
1.1311468e-07
1.1311429e-07
1.1311394e-07
1.1311362e-07
1.1311327e-07
1.131129e-07
1.1311254e-07
1.1311216e-07
1.1311172e-07
1.131113e-07
1.1311088e-07
1.1311038e-07
1.1310973e-07
1.1310962e-07
1.131087e-07
8.4259634e-08
8.4259694e-08
8.4261369e-08
8.4261177e-08
8.4261636e-08
8.426182e-08
8.4262084e-08
8.4262313e-08
8.4262558e-08
8.4262823e-08
8.4263114e-08
8.4263441e-08
8.4263803e-08
8.4264203e-08
8.4264637e-08
8.4265104e-08
8.4265596e-08
8.4266109e-08
8.426663e-08
8.4267151e-08
8.4267659e-08
8.4268138e-08
8.4268574e-08
8.4268951e-08
8.4269256e-08
8.4269476e-08
8.4269608e-08
8.4269647e-08
8.4269602e-08
8.4269481e-08
8.4269303e-08
8.4269088e-08
8.4268863e-08
8.4268649e-08
8.4268473e-08
8.4268342e-08
8.4268264e-08
8.4268228e-08
8.4268227e-08
8.4268244e-08
8.4268271e-08
8.4268301e-08
8.4268339e-08
8.4268397e-08
8.4268494e-08
8.4268638e-08
8.4268837e-08
8.4269082e-08
8.4269361e-08
8.426965e-08
8.4269928e-08
8.4270163e-08
8.427033e-08
8.4270394e-08
8.4270331e-08
8.4270137e-08
8.4269876e-08
8.4269773e-08
8.4270366e-08
8.427263e-08
8.4277774e-08
8.4285989e-08
8.4292778e-08
8.4280699e-08
8.4203732e-08
8.3961576e-08
8.3362959e-08
8.2081952e-08
7.9621771e-08
7.5319975e-08
6.8457491e-08
5.8552038e-08
4.5850332e-08
3.1771859e-08
1.8720689e-08
8.9442119e-09
3.2514571e-09
8.3573652e-10
1.9555525e-10
1.1105623e-10
1.428894e-10
8.4478233e-08
8.4478232e-08
8.4479413e-08
8.4479366e-08
8.447975e-08
8.447995e-08
8.4480202e-08
8.448043e-08
8.4480675e-08
8.448094e-08
8.4481232e-08
8.4481558e-08
8.4481918e-08
8.4482315e-08
8.4482746e-08
8.4483207e-08
8.4483694e-08
8.4484199e-08
8.4484713e-08
8.4485226e-08
8.4485726e-08
8.4486198e-08
8.4486628e-08
8.4486999e-08
8.4487301e-08
8.448752e-08
8.4487651e-08
8.4487694e-08
8.4487653e-08
8.448754e-08
8.4487371e-08
8.4487166e-08
8.4486952e-08
8.448675e-08
8.4486583e-08
8.4486462e-08
8.448639e-08
8.4486359e-08
8.4486358e-08
8.4486375e-08
8.4486399e-08
8.4486426e-08
8.448646e-08
8.4486514e-08
8.4486605e-08
8.4486743e-08
8.4486933e-08
8.4487167e-08
8.4487431e-08
8.4487705e-08
8.4487966e-08
8.4488187e-08
8.448834e-08
8.4488394e-08
8.4488324e-08
8.4488127e-08
8.4487865e-08
8.4487754e-08
8.448831e-08
8.4490463e-08
8.4495406e-08
8.4503494e-08
8.4510964e-08
8.4502453e-08
8.4436586e-08
8.4221816e-08
8.3681037e-08
8.2507699e-08
8.0225698e-08
7.618384e-08
6.9645112e-08
6.0056031e-08
4.7533956e-08
3.33672e-08
1.9944039e-08
9.667137e-09
3.5567901e-09
9.1355938e-10
2.0304644e-10
1.0110719e-10
1.2883878e-10
8.470836e-08
8.4708248e-08
8.4709292e-08
8.4709279e-08
8.4709642e-08
8.4709849e-08
8.4710096e-08
8.4710324e-08
8.4710565e-08
8.4710825e-08
8.4711113e-08
8.4711433e-08
8.4711788e-08
8.4712179e-08
8.4712603e-08
8.4713058e-08
8.4713538e-08
8.4714036e-08
8.4714545e-08
8.4715053e-08
8.4715549e-08
8.4716019e-08
8.4716448e-08
8.4716821e-08
8.4717125e-08
8.4717349e-08
8.4717488e-08
8.4717539e-08
8.4717508e-08
8.4717406e-08
8.4717249e-08
8.4717057e-08
8.4716854e-08
8.4716663e-08
8.4716504e-08
8.471639e-08
8.4716321e-08
8.4716292e-08
8.4716291e-08
8.4716307e-08
8.4716329e-08
8.4716353e-08
8.4716381e-08
8.4716428e-08
8.4716507e-08
8.4716632e-08
8.4716805e-08
8.4717022e-08
8.471727e-08
8.4717529e-08
8.4717779e-08
8.4717995e-08
8.4718151e-08
8.4718215e-08
8.4718161e-08
8.4717974e-08
8.4717689e-08
8.4717466e-08
8.4717726e-08
8.471932e-08
8.4723521e-08
8.473132e-08
8.4740909e-08
8.474144e-08
8.4700329e-08
8.4540919e-08
8.4108171e-08
8.3123431e-08
8.1137762e-08
7.7510786e-08
7.1472394e-08
6.2359173e-08
5.0096117e-08
3.5778867e-08
2.1776608e-08
1.0735827e-08
4.0036165e-09
1.0288054e-09
2.155764e-10
9.3553648e-11
1.1745366e-10
8.4950994e-08
8.4950855e-08
8.4951752e-08
8.4951775e-08
8.4952116e-08
8.4952331e-08
8.4952573e-08
8.49528e-08
8.4953039e-08
8.4953296e-08
8.495358e-08
8.4953896e-08
8.4954247e-08
8.4954631e-08
8.4955049e-08
8.4955496e-08
8.4955969e-08
8.495646e-08
8.4956962e-08
8.4957464e-08
8.4957955e-08
8.495842e-08
8.4958846e-08
8.4959217e-08
8.4959522e-08
8.4959748e-08
8.495989e-08
8.4959947e-08
8.4959925e-08
8.4959833e-08
8.4959687e-08
8.4959507e-08
8.4959316e-08
8.4959136e-08
8.4958987e-08
8.4958881e-08
8.4958819e-08
8.4958794e-08
8.4958794e-08
8.495881e-08
8.495883e-08
8.495885e-08
8.4958875e-08
8.4958915e-08
8.4958985e-08
8.4959098e-08
8.4959257e-08
8.4959459e-08
8.4959689e-08
8.4959933e-08
8.496017e-08
8.4960378e-08
8.4960531e-08
8.49606e-08
8.4960557e-08
8.4960382e-08
8.4960093e-08
8.4959813e-08
8.4959887e-08
8.4961067e-08
8.496459e-08
8.4971743e-08
8.4981937e-08
8.4987542e-08
8.496281e-08
8.4843521e-08
8.4494338e-08
8.3663438e-08
8.1931265e-08
7.8676319e-08
7.31112e-08
6.4483403e-08
5.2538331e-08
3.8161963e-08
2.3655295e-08
1.1870057e-08
4.4929617e-09
1.1593338e-09
2.3021215e-10
8.6887467e-11
1.0681692e-10
8.5206985e-08
8.5206845e-08
8.5207631e-08
8.5207686e-08
8.520801e-08
8.5208229e-08
8.5208469e-08
8.5208695e-08
8.5208932e-08
8.5209186e-08
8.5209467e-08
8.5209778e-08
8.5210123e-08
8.52105e-08
8.5210911e-08
8.5211351e-08
8.5211816e-08
8.5212299e-08
8.5212794e-08
8.5213288e-08
8.5213773e-08
8.5214234e-08
8.5214657e-08
8.5215026e-08
8.521533e-08
8.5215558e-08
8.5215704e-08
8.5215767e-08
8.5215752e-08
8.521567e-08
8.5215536e-08
8.5215369e-08
8.5215189e-08
8.5215021e-08
8.5214883e-08
8.5214785e-08
8.5214729e-08
8.5214708e-08
8.521471e-08
8.5214726e-08
8.5214744e-08
8.5214762e-08
8.5214782e-08
8.5214816e-08
8.5214878e-08
8.5214979e-08
8.5215123e-08
8.5215308e-08
8.5215522e-08
8.521575e-08
8.5215974e-08
8.5216173e-08
8.5216323e-08
8.5216398e-08
8.5216366e-08
8.5216205e-08
8.5215919e-08
8.521559e-08
8.5215495e-08
8.5216276e-08
8.5219104e-08
8.5225472e-08
8.5235821e-08
8.5245402e-08
8.5234819e-08
8.5151782e-08
8.4880444e-08
8.4196533e-08
8.2712527e-08
7.983154e-08
7.4758009e-08
6.6659559e-08
5.5100501e-08