/*--------------------------------*- C++ -*----------------------------------*\
| =========                 |                                                 |
| \\      /  F ield         | OpenFOAM: The Open Source CFD Toolbox           |
|  \\    /   O peration     | Version:  v2006                                 |
|   \\  /    A nd           | Website:  www.openfoam.com                      |
|    \\/     M anipulation  |                                                 |
\*---------------------------------------------------------------------------*/
FoamFile
{
    version     2.0;
    format      ascii;
    class       volScalarField;
    location    "10000";
    object      omega;
}
// * * * * * * * * * * * * * * * * * * * * * * * * * * * * * * * * * * * * * //

dimensions      [0 0 -1 0 0 0 0];


internalField   nonuniform List<scalar> 
102907
(
15.259213
3.1590682
1.0406607
0.50908333
0.33771641
0.27915507
0.25883643
0.25195937
0.24982655
0.24931563
0.24928774
0.249352
0.24940232
0.24942717
0.24943565
0.24943566
0.2494328
0.24943053
0.24942934
0.24942876
0.24942835
0.2494278
0.24942698
0.24942594
0.24942482
0.24942375
0.24942275
0.24942179
0.24942083
0.24941984
0.2494188
0.24941772
0.24941662
0.24941548
0.24941431
0.2494131
0.24941188
0.24941059
0.24940925
0.24940783
0.24940635
0.24940485
0.24940332
0.24940175
0.24940013
0.24939847
0.24939673
0.24939495
0.24939308
0.24939116
0.24938916
0.24938708
0.24938491
0.24938265
0.24938028
0.24937783
0.24937529
0.2493727
0.24937004
0.24936735
0.24936462
0.24936187
0.24935907
0.24935625
0.24935338
0.24935047
0.24934749
0.24934445
0.24934134
0.24933814
0.24933485
0.24933146
0.24932796
0.24932439
0.24932075
0.24931707
0.24931333
0.24930947
0.24930545
0.24930141
0.2492977
14.321874
2.9763737
0.98319529
0.48761893
0.33221735
0.280734
0.26353125
0.25805261
0.25647235
0.25617303
0.25620735
0.25627651
0.25631678
0.25633166
0.25633242
0.25632553
0.25631861
0.2563129
0.25630812
0.25630388
0.25629986
0.25629576
0.25629145
0.25628701
0.2562826
0.25627829
0.25627411
0.25627002
0.25626598
0.25626193
0.25625789
0.25625382
0.25624978
0.25624571
0.25624166
0.25623755
0.25623347
0.25622932
0.25622517
0.25622091
0.25621662
0.25621229
0.25620794
0.25620352
0.25619906
0.25619454
0.25618996
0.25618528
0.25618052
0.25617566
0.2561707
0.25616563
0.25616044
0.2561551
0.25614963
0.25614401
0.25613826
0.25613238
0.25612638
0.25612025
0.25611402
0.25610767
0.2561012
0.25609459
0.25608785
0.25608093
0.25607383
0.25606652
0.256059
0.25605121
0.25604315
0.25603477
0.25602607
0.25601701
0.2560076
0.25599782
0.25598764
0.25597693
0.25596557
0.25595362
0.25594145
13.466317
2.8179707
0.93288428
0.46961376
0.32861527
0.28352473
0.26916123
0.26471705
0.26358903
0.26345448
0.26352687
0.26359152
0.26361992
0.26362575
0.2636168
0.26360504
0.26359438
0.26358506
0.26357652
0.26356856
0.2635609
0.26355319
0.26354534
0.26353744
0.26352967
0.26352208
0.26351469
0.26350741
0.26350023
0.26349308
0.26348599
0.26347891
0.26347188
0.26346485
0.26345785
0.26345083
0.26344384
0.26343679
0.26342976
0.26342262
0.26341547
0.2634083
0.26340108
0.2633938
0.26338647
0.26337907
0.26337158
0.26336398
0.26335627
0.26334843
0.26334048
0.26333238
0.26332413
0.26331571
0.2633071
0.2632983
0.2632893
0.26328009
0.26327069
0.2632611
0.26325132
0.26324133
0.26323115
0.26322072
0.26321006
0.2631991
0.26318785
0.26317625
0.26316428
0.26315187
0.26313901
0.26312561
0.26311165
0.26309707
0.26308184
0.26306593
0.26304926
0.26303167
0.26301294
0.26299304
0.2629724
12.683352
2.671164
0.88595021
0.4536852
0.32646389
0.28726697
0.27541271
0.27195762
0.27121375
0.27120038
0.27128983
0.2713431
0.27135987
0.27135432
0.27133791
0.27132193
0.2713077
0.27129463
0.27128229
0.2712706
0.27125926
0.2712479
0.27123649
0.27122512
0.27121398
0.2712031
0.27119248
0.27118202
0.27117169
0.27116142
0.27115125
0.27114114
0.27113112
0.27112112
0.27111118
0.27110123
0.27109133
0.27108137
0.27107145
0.27106142
0.27105141
0.27104136
0.27103128
0.27102113
0.27101092
0.27100061
0.2709902
0.27097967
0.27096901
0.2709582
0.27094725
0.27093613
0.27092482
0.2709133
0.27090155
0.27088955
0.27087729
0.27086475
0.27085195
0.27083888
0.27082554
0.27081192
0.27079801
0.27078376
0.27076917
0.27075418
0.27073876
0.27072285
0.27070642
0.27068938
0.27067169
0.27065326
0.27063404
0.27061392
0.27059288
0.27057083
0.27054767
0.27052318
0.27049706
0.27046919
0.27044006
11.965046
2.535551
0.84260271
0.44002507
0.32583352
0.29200078
0.28241021
0.27980195
0.27937131
0.27943945
0.27952984
0.27956813
0.2795736
0.27955531
0.2795338
0.2795141
0.27949623
0.2794793
0.27946315
0.27944773
0.27943267
0.27941766
0.27940267
0.27938785
0.27937333
0.27935916
0.27934529
0.27933164
0.27931814
0.27930478
0.27929153
0.27927839
0.27926535
0.27925238
0.27923949
0.27922662
0.2792138
0.27920095
0.27918814
0.27917524
0.27916234
0.27914942
0.27913647
0.27912344
0.27911034
0.27909713
0.27908382
0.27907036
0.27905676
0.279043
0.27902906
0.27901491
0.27900055
0.27898594
0.27897105
0.27895586
0.27894034
0.27892448
0.27890829
0.27889175
0.27887487
0.27885761
0.27883999
0.27882193
0.27880343
0.27878441
0.27876484
0.27874462
0.27872374
0.27870207
0.27867958
0.27865614
0.27863169
0.27860606
0.27857923
0.27855105
0.27852143
0.27849007
0.27845662
0.2784208
0.27838321
11.304516
2.4098147
0.80244418
0.42850908
0.32665825
0.29780236
0.29014979
0.28827435
0.28809626
0.28821213
0.28829027
0.28831421
0.28830318
0.28827675
0.28825105
0.28822777
0.28820608
0.28818525
0.28816536
0.28814622
0.28812744
0.28810876
0.28809022
0.28807196
0.2880541
0.28803664
0.28801955
0.28800271
0.28798608
0.28796961
0.28795332
0.28793715
0.28792113
0.28790519
0.28788937
0.28787358
0.28785788
0.28784213
0.28782647
0.2878107
0.28779496
0.28777918
0.28776338
0.28774748
0.28773151
0.28771542
0.28769923
0.28768287
0.28766637
0.28764965
0.28763275
0.28761559
0.28759821
0.28758051
0.28756252
0.28754415
0.28752543
0.28750627
0.28748674
0.28746675
0.28744636
0.2874255
0.2874042
0.28738235
0.28735997
0.28733694
0.28731325
0.28728876
0.28726347
0.28723722
0.28720999
0.28718159
0.28715196
0.28712089
0.28708831
0.28705405
0.28701802
0.28697986
0.28693915
0.28689548
0.2868495
10.69577
2.2928576
0.76522446
0.41910231
0.32890292
0.30510775
0.29866059
0.2974198
0.29743051
0.29756207
0.29762083
0.29762931
0.29760243
0.29757049
0.29754114
0.29751424
0.29748861
0.29746396
0.29744039
0.29741756
0.29739509
0.29737276
0.29735071
0.29732905
0.2973079
0.2972872
0.29726693
0.29724692
0.29722721
0.29720767
0.29718837
0.29716921
0.29715025
0.29713137
0.29711267
0.29709398
0.29707544
0.29705684
0.29703838
0.29701977
0.29700123
0.29698262
0.29696402
0.29694529
0.29692652
0.29690758
0.29688856
0.29686933
0.29684996
0.29683033
0.29681052
0.2967904
0.29677004
0.2967493
0.29672827
0.29670678
0.29668491
0.29666252
0.2966397
0.29661632
0.29659249
0.29656806
0.29654314
0.29651755
0.29649136
0.29646438
0.29643665
0.29640797
0.29637837
0.29634762
0.29631573
0.29628244
0.29624772
0.29621129
0.29617309
0.29613285
0.29609051
0.29604567
0.29599786
0.29594648
0.29589225
10.133573
2.1835821
0.73071499
0.41177706
0.33257358
0.31294799
0.30802076
0.30729948
0.30741762
0.30754214
0.30758131
0.30756841
0.30753152
0.30749544
0.30746272
0.30743203
0.30740247
0.30737411
0.30734696
0.3073205
0.30729437
0.30726847
0.30724298
0.307218
0.30719363
0.30716976
0.30714637
0.30712329
0.30710054
0.307078
0.30705576
0.30703368
0.30701185
0.3069901
0.30696857
0.30694706
0.30692574
0.30690436
0.30688314
0.30686177
0.30684049
0.30681914
0.3067978
0.30677632
0.3067548
0.3067331
0.30671132
0.30668929
0.30666712
0.30664466
0.306622
0.30659899
0.30657573
0.30655205
0.30652805
0.30650355
0.30647863
0.3064531
0.30642708
0.3064004
0.3063732
0.30634531
0.30631684
0.30628762
0.30625772
0.30622691
0.30619526
0.3061625
0.3061287
0.30609358
0.30605715
0.30601912
0.30597946
0.30593783
0.30589416
0.3058481
0.30579963
0.30574829
0.3056936
0.30563473
0.30557246
9.613333
2.0809023
0.69873231
0.40652767
0.33763064
0.32185578
0.31825815
0.31793473
0.31811525
0.31821648
0.31823505
0.31820086
0.31815794
0.3181185
0.31808249
0.31804791
0.31801455
0.31798265
0.31795202
0.31792201
0.31789233
0.31786297
0.31783417
0.31780598
0.3177785
0.31775158
0.31772518
0.31769911
0.31767344
0.31764801
0.31762293
0.31759803
0.31757342
0.31754891
0.31752465
0.31750043
0.31747642
0.31745235
0.31742848
0.31740446
0.31738055
0.31735655
0.31733257
0.31730845
0.31728429
0.31725994
0.31723549
0.31721079
0.31718592
0.31716074
0.31713535
0.31710958
0.31708353
0.31705704
0.31703019
0.3170028
0.31697494
0.31694643
0.31691733
0.3168875
0.31685706
0.31682585
0.31679398
0.31676128
0.31672781
0.31669334
0.31665792
0.31662126
0.31658343
0.31654412
0.31650335
0.31646078
0.31641639
0.31636978
0.31632089
0.31626926
0.3162149
0.31615733
0.31609606
0.31603005
0.31596005
9.1310133
1.9836762
0.66913647
0.40336965
0.34410258
0.33186017
0.32940914
0.32939087
0.32958978
0.32966178
0.32965307
0.3296056
0.32955863
0.32951629
0.32947682
0.32943849
0.32940158
0.32936635
0.32933236
0.32929892
0.32926585
0.32923322
0.32920128
0.32917007
0.32913964
0.32910982
0.32908055
0.32905166
0.3290232
0.32899504
0.32896725
0.32893969
0.32891244
0.32888533
0.32885849
0.3288317
0.32880514
0.32877854
0.32875215
0.32872562
0.32869923
0.32867274
0.32864626
0.32861966
0.328593
0.32856616
0.32853919
0.32851197
0.32848457
0.32845684
0.32842887
0.3284005
0.32837183
0.32834269
0.32831317
0.32828307
0.32825247
0.32822115
0.32818918
0.32815639
0.32812291
0.32808858
0.32805351
0.32801752
0.3279807
0.32794279
0.32790383
0.32786352
0.3278219
0.32777867
0.32773383
0.327687
0.32763817
0.32758691
0.32753312
0.32747627
0.32741637
0.32735293
0.32728551
0.32721282
0.32713553
8.6830498
1.8906425
0.64183878
0.40233652
0.3522753
0.34302795
0.34154704
0.34173836
0.34192179
0.34196307
0.34192546
0.34187161
0.34182185
0.34177676
0.34173381
0.34169204
0.34165196
0.34161364
0.34157645
0.34153975
0.34150353
0.34146791
0.34143309
0.34139909
0.34136593
0.34133342
0.34130149
0.34126999
0.34123895
0.34120826
0.34117798
0.34114796
0.34111828
0.34108877
0.34105954
0.34103039
0.34100149
0.34097256
0.34094386
0.34091502
0.34088636
0.34085757
0.34082881
0.34079992
0.34077098
0.34074184
0.34071258
0.34068305
0.34065334
0.34062328
0.34059296
0.34056223
0.34053116
0.3404996
0.34046763
0.34043507
0.34040198
0.34036812
0.34033356
0.34029809
0.34026184
0.34022464
0.34018665
0.34014765
0.34010777
0.34006672
0.34002454
0.33998091
0.33993585
0.33988905
0.33984051
0.33978981
0.33973694
0.33968143
0.3396232
0.33956162
0.33949666
0.33942786
0.33935486
0.33927614
0.33919217
8.2662916
1.8003668
0.61681269
0.40346274
0.3638391
0.35543602
0.35475863
0.35507068
0.35520963
0.35521548
0.3551592
0.35510158
0.35504964
0.35500167
0.35495548
0.35491077
0.35486802
0.35482695
0.3547868
0.35474711
0.35470806
0.35466979
0.35463242
0.35459595
0.35456036
0.35452545
0.35449115
0.35445733
0.354424
0.35439107
0.35435858
0.35432638
0.35429454
0.35426291
0.35423158
0.35420034
0.35416937
0.35413839
0.35410765
0.35407678
0.35404613
0.35401531
0.35398456
0.35395366
0.35392271
0.35389156
0.3538603
0.35382876
0.35379702
0.35376493
0.35373257
0.35369976
0.35366662
0.35363294
0.35359886
0.35356415
0.35352892
0.35349288
0.35345609
0.35341829
0.35337964
0.35333994
0.35329939
0.35325775
0.3532152
0.35317141
0.35312647
0.35307994
0.35303193
0.35298201
0.35293028
0.35287621
0.35281985
0.35276065
0.35269861
0.35263292
0.35256357
0.35249007
0.35241226
0.35232835
0.35223854
7.8779461
1.7111674
0.59410368
0.40684667
0.37501729
0.36930488
0.36918305
0.36948394
0.36956926
0.36953686
0.36947342
0.36941414
0.36936048
0.36930969
0.3692607
0.36921368
0.36916891
0.36912558
0.36908284
0.36904055
0.36899912
0.36895863
0.36891915
0.36888061
0.36884299
0.36880607
0.36876979
0.36873403
0.36869882
0.36866402
0.3686297
0.36859569
0.36856207
0.36852868
0.36849561
0.36846266
0.36842999
0.36839733
0.36836492
0.36833239
0.3683001
0.36826763
0.36823526
0.36820273
0.36817016
0.36813738
0.3681045
0.36807132
0.36803796
0.36800422
0.36797022
0.36793575
0.36790094
0.36786557
0.3678298
0.36779339
0.36775646
0.3677187
0.36768017
0.36764054
0.36759997
0.36755825
0.36751562
0.36747184
0.36742713
0.36738116
0.36733401
0.36728521
0.36723483
0.36718245
0.36712817
0.36707142
0.36701228
0.36695015
0.36688507
0.36681616
0.36674329
0.36666598
0.36658435
0.36649639
0.36640185
7.5155352
1.6210597
0.57384737
0.41251529
0.38828034
0.3846397
0.38484507
0.38509705
0.38513321
0.38507459
0.38500798
0.38494815
0.38489301
0.38483986
0.38478869
0.38474013
0.38469423
0.38464935
0.38460458
0.38456027
0.38451699
0.38447481
0.38443376
0.3843937
0.38435458
0.38431617
0.38427845
0.38424127
0.38420468
0.38416853
0.38413287
0.38409755
0.38406265
0.38402799
0.38399367
0.3839595
0.38392561
0.38389175
0.38385815
0.38382446
0.38379101
0.38375738
0.38372391
0.38369022
0.38365654
0.38362263
0.38358863
0.38355433
0.38351986
0.383485
0.38344989
0.3834143
0.38337837
0.38334187
0.38330496
0.38326741
0.38322938
0.38319052
0.38315088
0.38311005
0.38306822
0.38302511
0.38298106
0.38293579
0.38288962
0.38284216
0.38279358
0.38274327
0.38269136
0.38263732
0.38258138
0.38252285
0.38246189
0.3823978
0.38233075
0.38225972
0.38218454
0.38210455
0.38202043
0.38192989
0.38183211
7.1768613
1.5277156
0.55629565
0.42056794
0.40339233
0.40150557
0.40189835
0.40207693
0.40206355
0.40199289
0.4019264
0.401867
0.40181094
0.40175623
0.40170371
0.40165453
0.40160862
0.40156313
0.40151718
0.40147162
0.40142719
0.40138399
0.40134207
0.4013012
0.40126129
0.40122209
0.40118362
0.4011457
0.40110841
0.40107156
0.40103524
0.40099926
0.40096373
0.40092845
0.40089354
0.40085877
0.40082431
0.40078989
0.40075575
0.40072153
0.40068757
0.40065343
0.40061949
0.4005853
0.40055118
0.40051677
0.40048235
0.40044758
0.4004127
0.40037738
0.40034189
0.40030586
0.40026956
0.40023263
0.40019535
0.40015739
0.40011903
0.40007985
0.40003997
0.39999878
0.39995654
0.39991288
0.39986828
0.39982237
0.39977566
0.39972762
0.39967861
0.39962782
0.39957547
0.39952083
0.39946439
0.39940527
0.39934374
0.39927897
0.39921133
0.39913966
0.39906375
0.39898262
0.39889771
0.39880654
0.39870748
6.8599853
1.4284952
0.54185529
0.43140999
0.42061059
0.42007051
0.42051334
0.42061117
0.42055774
0.42048665
0.42042261
0.42036452
0.4203085
0.42025359
0.42020087
0.42015223
0.42010764
0.42006273
0.42001669
0.41997092
0.41992628
0.41988297
0.41984111
0.41980036
0.41976059
0.41972154
0.41968323
0.41964548
0.41960836
0.41957171
0.41953558
0.41949982
0.4194645
0.41942946
0.41939479
0.41936029
0.4193261
0.41929198
0.41925812
0.41922423
0.41919058
0.4191568
0.4191232
0.41908939
0.41905566
0.41902167
0.41898767
0.41895334
0.41891892
0.41888408
0.41884909
0.41881358
0.41877782
0.41874144
0.41870475
0.41866737
0.41862967
0.41859124
0.41855218
0.41851175
0.41847021
0.41842714
0.41838309
0.41833772
0.41829161
0.41824425
0.41819604
0.41814619
0.41809476
0.41804102
0.41798551
0.41792742
0.41786693
0.41780324
0.41773675
0.41766639
0.41759182
0.4175116
0.41742809
0.41733882
0.4172411
6.5632252
1.3205576
0.53115049
0.44936405
0.44017342
0.44052308
0.44090445
0.44092564
0.44085534
0.44078828
0.44072788
0.44067219
0.44061777
0.44056457
0.44051342
0.44046672
0.44042502
0.44038201
0.44033721
0.4402925
0.44024902
0.44020694
0.44016645
0.44012709
0.44008872
0.44005103
0.44001409
0.43997768
0.43994192
0.43990659
0.43987181
0.43983739
0.43980343
0.43976973
0.43973643
0.43970329
0.43967049
0.43963776
0.43960531
0.43957285
0.43954063
0.43950831
0.43947618
0.43944386
0.43941166
0.43937921
0.43934679
0.43931405
0.43928128
0.4392481
0.4392148
0.43918103
0.43914703
0.43911246
0.43907762
0.43904214
0.43900639
0.43897006
0.43893324
0.43889506
0.43885569
0.43881466
0.43877267
0.43872933
0.4386854
0.43864029
0.43859454
0.43854738
0.43849876
0.43844781
0.4383952
0.43834018
0.43828292
0.43822254
0.43815956
0.43809295
0.43802252
0.43794598
0.43786672
0.43778251
0.43768976
6.2853122
1.2010757
0.52473628
0.46806786
0.46260214
0.46315043
0.46333914
0.4632997
0.46323288
0.46317366
0.46311869
0.46306726
0.46301655
0.46296749
0.46292057
0.4628779
0.46284084
0.46280105
0.46275901
0.4627171
0.46267667
0.46263787
0.46260054
0.4625643
0.46252895
0.46249425
0.46246023
0.46242674
0.46239385
0.46236139
0.46232945
0.46229787
0.46226674
0.46223588
0.46220539
0.4621751
0.46214512
0.46211527
0.46208566
0.46205611
0.46202676
0.46199739
0.46196817
0.46193885
0.46190963
0.46188024
0.46185088
0.46182128
0.46179166
0.46176171
0.46173167
0.46170123
0.46167061
0.46163952
0.46160816
0.4615763
0.46154425
0.46151172
0.46147886
0.461445
0.46140977
0.4613728
0.46133479
0.46129549
0.46125574
0.46121501
0.46117381
0.46113163
0.46108821
0.46104266
0.46099551
0.46094625
0.46089508
0.46084103
0.46078462
0.46072495
0.46066224
0.4605933
0.46052182
0.46044683
0.46036398
6.026439
1.0673939
0.52354802
0.48950733
0.48766245
0.48809163
0.48813082
0.48807467
0.488019
0.48797001
0.48792298
0.48787863
0.4878344
0.48779243
0.48775343
0.48771836
0.48768808
0.48765263
0.48761526
0.48757875
0.48754415
0.48751117
0.48747943
0.48744851
0.48741834
0.48738872
0.48735973
0.48733121
0.48730324
0.48727566
0.48724857
0.48722182
0.48719547
0.4871694
0.48714367
0.48711816
0.48709293
0.48706786
0.48704302
0.48701829
0.48699374
0.48696924
0.48694486
0.48692048
0.48689619
0.48687183
0.48684751
0.48682305
0.48679859
0.48677391
0.48674919
0.48672417
0.48669905
0.48667356
0.4866479
0.48662183
0.4865957
0.48656923
0.48654268
0.48651543
0.48648721
0.48645692
0.48642557
0.48639279
0.48635995
0.48632627
0.48629258
0.48625818
0.48622317
0.48618619
0.48614802
0.48610796
0.48606672
0.48602276
0.48597696
0.4859284
0.48587782
0.48582206
0.48576275
0.48570226
0.48563601
5.7865349
0.9167457
0.5286534
0.51531749
0.51550439
0.51569287
0.51565955
0.51561511
0.51557629
0.51554182
0.51550681
0.51547409
0.51544025
0.51540913
0.51538248
0.51536087
0.51534008
0.51531
0.51528021
0.51525296
0.51522783
0.51520384
0.5151807
0.51515801
0.51513596
0.51511427
0.51509315
0.51507233
0.51505205
0.51503201
0.51501248
0.51499313
0.51497422
0.51495548
0.51493712
0.51491889
0.51490099
0.51488319
0.51486568
0.51484822
0.51483104
0.51481387
0.51479692
0.51477996
0.51476318
0.51474636
0.51472968
0.51471291
0.51469625
0.51467945
0.51466272
0.51464579
0.51462891
0.51461177
0.51459461
0.51457713
0.51455971
0.51454212
0.51452469
0.51450699
0.514489
0.51446902
0.51444762
0.51442495
0.51440263
0.51437985
0.51435734
0.51433453
0.51431176
0.51428755
0.51426254
0.51423624
0.51420926
0.51418042
0.51415009
0.51411817
0.51408501
0.51404909
0.51400812
0.51396884
0.51392658
5.5657947
0.74380543
0.54501413
0.54556246
0.54625552
0.54626795
0.54624147
0.54622182
0.5462034
0.54619043
0.54617238
0.54615716
0.54614015
0.54612476
0.54611275
0.546108
0.54610154
0.54608188
0.54606482
0.54605187
0.54604028
0.5460292
0.54601842
0.54600794
0.54599776
0.54598785
0.54597822
0.54596883
0.54595971
0.54595083
0.54594221
0.54593378
0.54592562
0.5459176
0.54590986
0.54590222
0.54589488
0.54588759
0.54588061
0.54587363
0.54586699
0.54586032
0.54585398
0.5458476
0.54584152
0.54583539
0.54582956
0.54582364
0.54581802
0.54581228
0.54580685
0.54580125
0.545796
0.54579055
0.54578541
0.54577997
0.54577486
0.54576948
0.54576455
0.54575937
0.54575473
0.54574892
0.54574258
0.54573537
0.54572909
0.54572216
0.54571597
0.54570934
0.54570357
0.54569692
0.54569043
0.54568292
0.54567568
0.54566751
0.54565914
0.54565001
0.54564084
0.54563091
0.54561781
0.54560711
0.54559557
0.16815253
0.16815259
0.16815612
0.16815592
0.16815697
0.16815755
0.16815836
0.16815914
0.16815996
0.16816079
0.16816162
0.16816247
0.16816333
0.1681642
0.16816507
0.16816594
0.16816681
0.16816768
0.16816853
0.16816938
0.16817021
0.16817104
0.16817184
0.16817265
0.16817342
0.1681742
0.16817495
0.16817571
0.16817644
0.16817717
0.16817784
0.16817848
0.16817903
0.16817954
0.16817996
0.16818032
0.1681806
0.16818083
0.16818099
0.16818109
0.16818112
0.16818109
0.16818099
0.16818083
0.16818059
0.1681803
0.16817994
0.16817953
0.16817904
0.1681785
0.16817788
0.1681772
0.16817645
0.16817565
0.16817482
0.16817396
0.16817305
0.16817201
0.16817061
0.16816842
0.16816492
0.16816012
0.16815626
0.16816211
0.16820177
0.16833189
0.16867282
0.16946197
0.17114152
0.17449924
0.18089537
0.19264143
0.21367136
0.25083748
0.31674016
0.43695653
0.67179197
1.1929645
2.5852977
7.8391912
42.012118
0.16990668
0.16990695
0.16990958
0.16990967
0.16991059
0.16991124
0.16991204
0.16991285
0.16991366
0.16991451
0.16991534
0.16991621
0.16991707
0.16991794
0.16991881
0.16991969
0.16992056
0.16992143
0.16992228
0.16992314
0.16992397
0.16992481
0.16992561
0.16992642
0.1699272
0.16992799
0.16992876
0.16992953
0.16993027
0.169931
0.16993168
0.16993232
0.16993288
0.16993338
0.16993381
0.16993416
0.16993445
0.16993467
0.16993483
0.16993492
0.16993495
0.16993491
0.16993482
0.16993465
0.16993442
0.16993412
0.16993376
0.16993333
0.16993284
0.16993229
0.16993167
0.16993098
0.16993024
0.16992944
0.1699286
0.16992774
0.16992683
0.16992579
0.16992439
0.16992223
0.16991877
0.16991391
0.16990959
0.16991362
0.16994791
0.17006447
0.17037469
0.17110007
0.17265668
0.17579219
0.18180837
0.19293303
0.21297753
0.24859783
0.31201974
0.42798514
0.6548955
1.1596776
2.5081935
7.5887322
40.339965
0.17176869
0.17176893
0.17177133
0.17177147
0.17177237
0.17177306
0.17177387
0.1717747
0.17177553
0.17177639
0.17177724
0.17177811
0.17177898
0.17177987
0.17178075
0.17178164
0.17178251
0.17178339
0.17178424
0.17178511
0.17178595
0.17178679
0.1717876
0.17178842
0.17178921
0.17179001
0.17179078
0.17179156
0.17179232
0.17179305
0.17179374
0.17179438
0.17179495
0.17179545
0.17179588
0.17179623
0.17179652
0.17179674
0.17179691
0.171797
0.17179704
0.17179701
0.17179691
0.17179675
0.17179652
0.17179623
0.17179587
0.17179545
0.17179497
0.17179442
0.17179381
0.17179313
0.1717924
0.1717916
0.17179077
0.1717899
0.17178901
0.17178802
0.17178676
0.17178482
0.17178165
0.17177683
0.17177136
0.17177083
0.17179246
0.17187929
0.17212677
0.17272993
0.17406365
0.17681492
0.1821999
0.19232766
0.21084297
0.2441554
0.30408043
0.41451417
0.63165537
1.1158089
2.4110395
7.2933302
38.704686
0.1737478
0.17374811
0.17375022
0.17375045
0.17375132
0.17375205
0.17375287
0.17375372
0.17375456
0.17375543
0.17375629
0.17375718
0.17375806
0.17375896
0.17375984
0.17376074
0.17376161
0.1737625
0.17376336
0.17376423
0.17376507
0.17376592
0.17376673
0.17376756
0.17376835
0.17376916
0.17376994
0.17377073
0.17377149
0.17377223
0.17377293
0.17377356
0.17377414
0.17377464
0.17377507
0.17377542
0.17377571
0.17377593
0.17377609
0.17377619
0.17377622
0.17377619
0.1737761
0.17377594
0.17377572
0.17377542
0.17377507
0.17377465
0.17377418
0.17377363
0.17377303
0.17377236
0.17377162
0.17377083
0.17377
0.17376914
0.17376825
0.17376729
0.17376611
0.17376436
0.17376146
0.17375684
0.17375091
0.17374771
0.17376097
0.17382664
0.17402707
0.17453459
0.17568744
0.17811694
0.18295888
0.1922095
0.20935419
0.24056519
0.29725858
0.40251607
0.6104886
1.0752919
2.3193755
7.0078441
37.107265
0.17585381
0.17585419
0.17585605
0.17585635
0.17585721
0.17585797
0.1758588
0.17585966
0.17586051
0.1758614
0.17586227
0.17586317
0.17586406
0.17586497
0.17586585
0.17586676
0.17586763
0.17586853
0.17586939
0.17587026
0.1758711
0.17587196
0.17587278
0.17587361
0.17587441
0.17587522
0.17587602
0.17587681
0.17587758
0.17587833
0.17587902
0.17587966
0.17588024
0.17588073
0.17588116
0.17588152
0.1758818
0.17588202
0.17588218
0.17588228
0.17588232
0.17588229
0.1758822
0.17588205
0.17588182
0.17588153
0.17588119
0.17588077
0.1758803
0.17587976
0.17587917
0.1758785
0.17587778
0.17587699
0.17587616
0.1758753
0.17587441
0.17587348
0.17587238
0.17587081
0.1758682
0.17586387
0.1758577
0.17585231
0.17585815
0.17590449
0.17606098
0.17647771
0.17745633
0.17957174
0.18387708
0.19225195
0.20801774
0.23710602
0.29053666
0.39059383
0.58942095
1.0350919
2.2291375
6.7285997
35.548629
0.17809768
0.1780981
0.17809974
0.1781001
0.17810096
0.17810175
0.17810259
0.17810347
0.17810433
0.17810523
0.17810611
0.17810703
0.17810792
0.17810884
0.17810972
0.17811064
0.17811151
0.17811241
0.17811327
0.17811415
0.17811499
0.17811585
0.17811668
0.17811751
0.17811832
0.17811914
0.17811994
0.17812074
0.17812152
0.17812226
0.17812296
0.1781236
0.17812417
0.17812467
0.1781251
0.17812545
0.17812574
0.17812595
0.17812611
0.17812621
0.17812625
0.17812623
0.17812614
0.17812598
0.17812577
0.17812548
0.17812514
0.17812473
0.17812426
0.17812373
0.17812314
0.17812248
0.17812177
0.17812099
0.17812016
0.1781193
0.17811842
0.17811751
0.17811647
0.17811506
0.17811275
0.17810878
0.17810267
0.17809586
0.17809601
0.17812644
0.1782452
0.17858157
0.17940207
0.18122605
0.18502385
0.1925567
0.20697931
0.23398083
0.28418874
0.37911093
0.56894738
0.99589086
2.1410148
6.4560274
34.029567
0.18049169
0.18049208
0.1804935
0.18049393
0.18049477
0.18049559
0.18049645
0.18049735
0.18049822
0.18049913
0.18050001
0.18050094
0.18050183
0.18050276
0.18050365
0.18050457
0.18050544
0.18050634
0.1805072
0.18050808
0.18050893
0.18050978
0.18051062
0.18051145
0.18051227
0.18051309
0.18051391
0.18051471
0.18051549
0.18051624
0.18051694
0.18051757
0.18051814
0.18051864
0.18051906
0.18051941
0.1805197
0.18051991
0.18052007
0.18052017
0.18052021
0.18052019
0.18052011
0.18051995
0.18051974
0.18051946
0.18051912
0.18051871
0.18051825
0.18051773
0.18051715
0.1805165
0.18051579
0.18051502
0.1805142
0.18051334
0.18051247
0.18051156
0.18051059
0.18050931
0.18050729
0.18050373
0.18049789
0.18049024
0.18048606
0.18050333
0.18058957
0.18085448
0.1815309
0.18308362
0.18639982
0.19312017
0.20622896
0.23116977
0.27818044
0.36801268
0.54898476
0.95757934
2.0549436
6.1902063
32.550756
0.18304943
0.18304973
0.18305098
0.18305147
0.18305232
0.18305317
0.18305404
0.18305495
0.18305583
0.18305675
0.18305765
0.18305858
0.18305948
0.18306041
0.1830613
0.18306222
0.18306309
0.18306399
0.18306485
0.18306573
0.18306658
0.18306743
0.18306827
0.1830691
0.18306993
0.18307075
0.18307157
0.18307237
0.18307316
0.1830739
0.1830746
0.18307523
0.1830758
0.18307629
0.18307671
0.18307705
0.18307734
0.18307755
0.18307771
0.1830778
0.18307785
0.18307783
0.18307775
0.1830776
0.18307739
0.18307711
0.18307678
0.18307638
0.18307593
0.18307541
0.18307484
0.1830742
0.1830735
0.18307275
0.18307194
0.18307108
0.1830702
0.18306931
0.18306837
0.18306722
0.18306547
0.18306235
0.18305694
0.183049
0.18304175
0.18304856
0.18310741
0.18330997
0.18385706
0.18516037
0.18802415
0.19396653
0.20579721
0.22870994
0.27255445
0.35734651
0.52958639
0.92021626
1.97098
5.9312374
31.112761
0.18578617
0.18578641
0.18578753
0.18578807
0.18578893
0.18578981
0.18579069
0.18579162
0.1857925
0.18579344
0.18579433
0.18579527
0.18579617
0.1857971
0.18579799
0.18579891
0.18579978
0.18580067
0.18580154
0.18580241
0.18580326
0.18580411
0.18580495
0.18580579
0.18580662
0.18580744
0.18580826
0.18580907
0.18580985
0.18581059
0.18581128
0.18581191
0.18581247
0.18581295
0.18581337
0.18581371
0.18581399
0.1858142
0.18581435
0.18581445
0.1858145
0.18581448
0.1858144
0.18581426
0.18581405
0.18581378
0.18581345
0.18581306
0.18581261
0.18581211
0.18581154
0.18581092
0.18581024
0.18580949
0.18580869
0.18580785
0.18580697
0.18580608
0.18580517
0.18580412
0.18580261
0.18579994
0.18579509
0.18578727
0.18577806
0.18577685
0.18581314
0.18596205
0.18639438
0.18747055
0.18991265
0.1951146
0.20570686
0.22662747
0.2673378
0.34713747
0.51077507
0.88382613
1.8891582
5.6792044
29.716028
0.18871919
0.18871938
0.18872041
0.18872101
0.1887219
0.1887228
0.18872369
0.18872463
0.18872552
0.18872646
0.18872736
0.1887283
0.18872921
0.18873014
0.18873103
0.18873194
0.18873281
0.1887337
0.18873456
0.18873543
0.18873628
0.18873712
0.18873796
0.18873879
0.18873962
0.18874044
0.18874126
0.18874206
0.18874284
0.18874358
0.18874427
0.18874488
0.18874543
0.18874591
0.18874632
0.18874666
0.18874693
0.18874714
0.18874729
0.18874738
0.18874743
0.18874742
0.18874735
0.18874721
0.188747
0.18874674
0.18874641
0.18874603
0.18874559
0.1887451
0.18874454
0.18874393
0.18874327
0.18874254
0.18874176
0.18874092
0.18874005
0.18873916
0.18873827
0.1887373
0.188736
0.18873376
0.18872955
0.1887222
0.188712
0.18870497
0.18872318
0.18882683
0.18915878
0.19003054
0.19208346
0.19658622
0.20598504
0.2249548
0.26256543
0.33741926
0.49258318
0.84844418
1.8095195
5.4341727
28.360891
0.19186805
0.19186823
0.1918692
0.19186985
0.19187076
0.19187169
0.19187259
0.19187354
0.19187444
0.19187538
0.19187629
0.19187723
0.19187813
0.19187905
0.19187995
0.19188084
0.19188172
0.19188259
0.19188346
0.19188431
0.19188516
0.19188599
0.19188683
0.19188765
0.19188848
0.19188929
0.19189011
0.19189091
0.19189168
0.19189241
0.19189309
0.19189369
0.19189423
0.1918947
0.1918951
0.19189543
0.1918957
0.1918959
0.19189605
0.19189614
0.19189619
0.19189618
0.19189611
0.19189598
0.19189578
0.19189552
0.19189521
0.19189483
0.19189441
0.19189392
0.19189338
0.19189279
0.19189214
0.19189143
0.19189067
0.19188985
0.19188899
0.19188811
0.19188722
0.19188631
0.19188519
0.19188335
0.19187981
0.19187319
0.1918628
0.19185189
0.19185614
0.19192243
0.19216801
0.19285818
0.19455581
0.19840409
0.20666023
0.2237265
0.25827464
0.32822617
0.47504087
0.81410394
1.7321056
5.1961983
27.047572
0.19525501
0.19525516
0.1952561
0.19525681
0.19525773
0.19525868
0.1952596
0.19526054
0.19526145
0.19526239
0.1952633
0.19526424
0.19526515
0.19526606
0.19526695
0.19526783
0.1952687
0.19526956
0.19527041
0.19527125
0.19527209
0.19527292
0.19527374
0.19527456
0.19527538
0.19527619
0.195277
0.19527779
0.19527855
0.19527927
0.19527993
0.19528052
0.19528105
0.19528151
0.1952819
0.19528222
0.19528248
0.19528268
0.19528282
0.19528291
0.19528296
0.19528295
0.19528289
0.19528276
0.19528257
0.19528232
0.19528202
0.19528165
0.19528124
0.19528076
0.19528024
0.19527967
0.19527904
0.19527836
0.19527762
0.19527682
0.19527598
0.1952751
0.19527422
0.19527335
0.19527236
0.19527087
0.195268
0.19526229
0.19525235
0.19523925
0.19523327
0.19526957
0.19544221
0.19597341
0.1973506
0.20059249
0.20776303
0.22298087
0.2545079
0.31959665
0.45817953
0.78084092
1.656965
4.9653177
25.776182
0.1989053
0.19890549
0.19890642
0.19890718
0.19890813
0.19890909
0.19891002
0.19891096