/*--------------------------------*- C++ -*----------------------------------*\
| =========                 |                                                 |
| \\      /  F ield         | OpenFOAM: The Open Source CFD Toolbox           |
|  \\    /   O peration     | Version:  v2006                                 |
|   \\  /    A nd           | Website:  www.openfoam.com                      |
|    \\/     M anipulation  |                                                 |
\*---------------------------------------------------------------------------*/
FoamFile
{
    version     2.0;
    format      ascii;
    class       surfaceScalarField;
    location    "10000";
    object      phi;
}
// * * * * * * * * * * * * * * * * * * * * * * * * * * * * * * * * * * * * * //

dimensions      [1 0 -1 0 0 0 0];
oriented        oriented;


internalField   nonuniform List<scalar> 
204841
(
6.5909391e-06
-0.00020805664
0.00020146567
1.1977594e-05
-0.00019926645
0.00019387976
1.6370461e-05
-0.00019135451
0.00018696161
1.9935433e-05
-0.00018415289
0.00018058789
2.2805134e-05
-0.00017755195
0.00017468222
2.5087863e-05
-0.00017147577
0.00016919301
2.6872609e-05
-0.00016586662
0.00016408184
2.8233072e-05
-0.00016067779
0.0001593173
2.9230465e-05
-0.00015586944
0.00015487202
2.9916021e-05
-0.00015140739
0.0001507218
3.0332748e-05
-0.00014726208
0.00014684532
3.0517019e-05
-0.00014340693
0.00014322263
3.0499683e-05
-0.00013981845
0.00013983575
3.0306964e-05
-0.00013647785
0.00013667054
2.9961399e-05
-0.00013336417
0.0001337097
2.9482298e-05
-0.00013046284
0.00013094191
2.88863e-05
-0.00012775886
0.00012835482
2.8187823e-05
-0.00012523899
0.00012593744
2.7399354e-05
-0.00012289136
0.00012367979
2.6531759e-05
-0.00012070554
0.00012157311
2.5594489e-05
-0.00011867179
0.00011960902
2.4595834e-05
-0.00011678152
0.00011778015
2.354303e-05
-0.00011502678
0.00011607955
2.2442472e-05
-0.00011340051
0.00011450104
2.1299768e-05
-0.00011189633
0.000113039
2.0119914e-05
-0.0001105084
0.00011168822
1.8907317e-05
-0.00010923147
0.00011044403
1.766592e-05
-0.0001080609
0.00010930227
1.639923e-05
-0.0001069924
0.00010825906
1.5110405e-05
-0.0001060222
0.000107311
1.3802262e-05
-0.00010514693
0.00010645504
1.247737e-05
-0.00010436356
0.00010568843
1.1138039e-05
-0.00010366945
0.00010500875
9.7864049e-06
-0.00010306223
0.00010441384
8.4244126e-06
-0.00010253993
0.00010390189
7.0538951e-06
-0.00010210083
0.00010347132
5.676541e-06
-0.00010174348
0.0001031208
4.2939711e-06
-0.00010146673
0.00010284927
2.9077128e-06
-0.00010126968
0.00010265591
1.5192666e-06
-0.0001011517
0.00010254012
1.3007658e-07
-0.00010111241
0.00010250157
-1.2583982e-06
-0.00010115168
0.00010254013
-2.6447114e-06
-0.00010126964
0.00010265592
-4.0273613e-06
-0.00010146667
0.0001028493
-5.4048187e-06
-0.0001017434
0.00010312083
-6.7754616e-06
-0.00010210072
0.00010347134
-8.1376018e-06
-0.00010253978
0.0001039019
-9.489412e-06
-0.00010306204
0.00010441383
-1.0828952e-05
-0.00010366919
0.00010500871
-1.2154088e-05
-0.00010436324
0.00010568835
-1.3462509e-05
-0.00010514653
0.00010645493
-1.4751649e-05
-0.00010602173
0.00010731085
-1.6018692e-05
-0.00010699187
0.0001082589
-1.7260488e-05
-0.00010806034
0.00010930211
-1.8473537e-05
-0.00010923091
0.00011044394
-1.9653911e-05
-0.00011050789
0.00011168825
-2.0797202e-05
-0.00011189592
0.0001130392
-2.1898424e-05
-0.00011340027
0.00011450147
-2.2951949e-05
-0.00011502674
0.00011608025
-2.395138e-05
-0.0001167817
0.00011778112
-2.4889452e-05
-0.00011867218
0.00011961023
-2.5757876e-05
-0.00012070607
0.00012157448
-2.6547178e-05
-0.00012289197
0.00012368125
-2.7246516e-05
-0.00012523959
0.00012593891
-2.7843402e-05
-0.00012775935
0.00012835622
-2.8323454e-05
-0.00013046317
0.0001309432
-2.867003e-05
-0.00013336428
0.00013371085
-2.8863864e-05
-0.00013647773
0.00013667155
-2.8882408e-05
-0.00013981807
0.0001398366
-2.8699475e-05
-0.00014340626
0.00014322331
-2.8284209e-05
-0.00014726111
0.00014684583
-2.7600291e-05
-0.00015140612
0.00015072218
-2.6604697e-05
-0.00015586798
0.00015487238
-2.5246234e-05
-0.00016067627
0.00015931779
-2.3463583e-05
-0.0001658652
0.00016408254
-2.1182943e-05
-0.0001714742
0.00016919354
-1.8314827e-05
-0.00017754868
0.00017468056
-1.4750027e-05
-0.00018414164
0.00018057682
-1.0354134e-05
-0.00019131549
0.00018691959
-4.9602771e-06
-0.00019914469
0.00019375082
-0.00020771888
0.00020111768
1.640915e-06
6.6058927e-06
-0.00021466253
1.2004248e-05
-0.0002046648
1.6406572e-05
-0.00019575683
1.9978943e-05
-0.00018772526
2.2854073e-05
-0.00018042708
2.5140604e-05
-0.0001737623
2.6927838e-05
-0.00016765385
2.8289666e-05
-0.00016203961
2.9287501e-05
-0.00015686728
2.9972724e-05
-0.00015209261
3.0388465e-05
-0.00014767783
3.0571181e-05
-0.00014358964
3.0551797e-05
-0.00013979907
3.0356596e-05
-0.00013628265
3.0008171e-05
-0.00013301574
2.9525873e-05
-0.00012998054
2.8926391e-05
-0.00012715938
2.8224188e-05
-0.00012453679
2.7431789e-05
-0.00012209896
2.6560097e-05
-0.00011983384
2.5618587e-05
-0.00011773028
2.4615561e-05
-0.00011577849
2.3558269e-05
-0.00011396949
2.2453112e-05
-0.00011229535
2.1305715e-05
-0.00011074893
2.0121081e-05
-0.00010932376
1.8903629e-05
-0.00010801402
1.7657316e-05
-0.00010681458
1.6385654e-05
-0.00010572074
1.5091818e-05
-0.00010472836
1.3778635e-05
-0.00010383375
1.2448682e-05
-0.00010303361
1.1104267e-05
-0.00010232504
9.7475323e-06
-0.00010170549
8.3804181e-06
-0.00010117282
7.0047592e-06
-0.00010072517
5.6222428e-06
-0.00010036097
4.234504e-06
-0.00010007899
2.8430719e-06
-9.9878253e-05
1.4494598e-06
-9.9758086e-05
5.5114025e-08
-9.971807e-05
-1.3385056e-06
-9.9758059e-05
-2.7299542e-06
-9.9878197e-05
-4.1177305e-06
-0.00010007889
-5.5003087e-06
-0.00010036082
-6.8760688e-06
-0.00010072496
-8.2433152e-06
-0.00010117254
-9.6002155e-06
-0.00010170514
-1.0944816e-05
-0.0001023246
-1.2274972e-05
-0.00010303308
-1.3588365e-05
-0.00010383315
-1.4882428e-05
-0.00010472767
-1.6154336e-05
-0.00010571997
-1.7400934e-05
-0.00010681374
-1.8618714e-05
-0.00010801313
-1.9803748e-05
-0.00010932286
-2.0951615e-05
-0.00011074806
-2.2057326e-05
-0.00011229456
-2.3115226e-05
-0.00011396885
-2.4118906e-05
-0.00011577803
-2.5061073e-05
-0.00011773001
-2.5933411e-05
-0.00011983374
-2.6726421e-05
-0.00012209896
-2.7429221e-05
-0.00012453679
-2.8029306e-05
-0.00012715927
-2.8512247e-05
-0.00012998023
-2.8861377e-05
-0.00013301516
-2.9057364e-05
-0.00013628175
-2.9077635e-05
-0.0001397978
-2.8895913e-05
-0.00014358798
-2.8481287e-05
-0.00014767574
-2.7797311e-05
-0.0001520901
-2.6800872e-05
-0.00015686443
-2.5440603e-05
-0.00016203654
-2.3655055e-05
-0.00016765076
-2.1370183e-05
-0.00017375908
-1.8496293e-05
-0.00018042258
-1.4923823e-05
-0.00018771412
-1.0518061e-05
-0.00019572126
-5.1116113e-06
-0.00020455116
-0.00021433587
1.5053706e-06
6.6214274e-06
-0.00022128396
1.2032069e-05
-0.00021007545
1.6444286e-05
-0.00020016905
2.0024082e-05
-0.00019130506
2.2904653e-05
-0.00018330766
2.5195008e-05
-0.00017605265
2.6984724e-05
-0.00016944358
2.8347929e-05
-0.00016340282
2.9346217e-05
-0.00015786557
3.0031126e-05
-0.00015277751
3.044591e-05
-0.00014809262
3.062713e-05
-0.00014377086
3.0605778e-05
-0.00013977772
3.0408192e-05
-0.00013608506
3.0057011e-05
-0.00013266457
2.9571633e-05
-0.00012949516
2.8968779e-05
-0.00012655653
2.826295e-05
-0.00012383096
2.7466699e-05
-0.00012130272
2.6590964e-05
-0.00011895811
2.5645254e-05
-0.00011678458
2.4637904e-05
-0.00011477114
2.3576175e-05
-0.00011290777
2.2466488e-05
-0.00011118566
2.1314474e-05
-0.00010959693
2.012515e-05
-0.00010813444
1.8902939e-05
-0.00010679181
1.7651804e-05
-0.00010556345
1.6375254e-05
-0.0001044442
1.5076475e-05
-0.00010342958
1.3758299e-05
-0.00010251559
1.242333e-05
-0.00010169864
1.1073886e-05
-0.0001009756
9.7121157e-06
-0.00010034372
8.3399569e-06
-9.980067e-05
6.9592403e-06
-9.9344451e-05
5.5716517e-06
-9.897339e-05
4.1788258e-06
-9.8686161e-05
2.7822918e-06
-9.8481728e-05
1.3835662e-06
-9.835936e-05
-1.589321e-08
-9.8318619e-05
-1.4146072e-06
-9.8359346e-05
-2.8111303e-06
-9.8481681e-05
-4.2039647e-06
-9.868606e-05
-5.5915836e-06
-9.8973213e-05
-6.9723732e-06
-9.9344174e-05
-8.3446344e-06
-9.9800288e-05
-9.7065265e-06
-0.00010034325
-1.1056074e-05
-0.00010097506
-1.2391134e-05
-0.00010169803
-1.3709381e-05
-0.0001025149
-1.5008249e-05
-0.00010342881
-1.6284911e-05
-0.00010444331
-1.7536227e-05
-0.00010556243
-1.875868e-05
-0.00010679068
-1.9948333e-05
-0.00010813321
-2.1100727e-05
-0.00010959566
-2.2210855e-05
-0.00011118444
-2.3273031e-05
-0.00011290667
-2.4280835e-05
-0.00011477023
-2.5226952e-05
-0.00011678389
-2.6103059e-05
-0.00011895763
-2.6899636e-05
-0.00012130238
-2.7605772e-05
-0.00012383065
-2.8208934e-05
-0.00012655611
-2.869468e-05
-0.00012949448
-2.9046322e-05
-0.00013266352
-2.9244481e-05
-0.00013608358
-2.9266494e-05
-0.00013977579
-2.9086009e-05
-0.00014376846
-2.8671999e-05
-0.00014808975
-2.7987924e-05
-0.00015277418
-2.6990543e-05
-0.00015786181
-2.5628362e-05
-0.00016339873
-2.3839763e-05
-0.00016943936
-2.1550522e-05
-0.00017604832
-1.867072e-05
-0.00018330238
-1.509047e-05
-0.00019129438
-1.0674737e-05
-0.00020013699
-5.2556156e-06
-0.00020997028
-0.00022096865
1.3771768e-06
6.6369579e-06
-0.00022792092
1.2059885e-05
-0.00021549838
1.6482126e-05
-0.0002045913
2.0069569e-05
-0.00019489251
2.2955792e-05
-0.00018619388
2.5250208e-05
-0.00017834707
2.7042687e-05
-0.00017123606
2.8407558e-05
-0.00016476769
2.9406586e-05
-0.0001588646
3.0091426e-05
-0.00015346236
3.0505482e-05
-0.00014850668
3.0685405e-05
-0.00014395079
3.0662286e-05
-0.00013975461
3.0462511e-05
-0.0001358853
3.0108791e-05
-0.00013231085
2.9620547e-05
-0.00012900692
2.9014573e-05
-0.00012595056
2.8305369e-05
-0.00012312176
2.7505539e-05
-0.00012050289
2.6625999e-05
-0.00011807857
2.567631e-05
-0.00011583489
2.4664805e-05
-0.00011375964
2.3598809e-05
-0.00011184178
2.2484737e-05
-0.0001100716
2.132827e-05
-0.00010844046
2.0134408e-05
-0.00010694058
1.8907617e-05
-0.00010556502
1.7651834e-05
-0.00010430767
1.6370612e-05
-0.00010316298
1.506709e-05
-0.00010212607
1.3744135e-05
-0.00010119263
1.2404312e-05
-0.00010035882
1.1050002e-05
-9.9621292e-05
9.6833282e-06
-9.8977061e-05
8.3062824e-06
-9.8423623e-05
6.9206596e-06
-9.795884e-05
5.5281909e-06
-9.758092e-05
4.1304556e-06
-9.7288438e-05
2.7290221e-06
-9.7080292e-05
1.3253546e-06
-9.6955705e-05
-7.9047965e-08
-9.6914214e-05
-1.4827431e-06
-9.6955664e-05
-2.8842217e-06
-9.7080199e-05
-4.2820147e-06
-9.728828e-05
-5.6745368e-06
-9.7580688e-05
-7.0602006e-06
-9.7958523e-05
-8.4372717e-06
-9.8423213e-05
-9.8039613e-06
-9.8976573e-05
-1.1158268e-05
-9.9620746e-05
-1.2498093e-05
-0.00010035821
-1.3821068e-05
-0.00010119192
-1.5124664e-05
-0.00010212522
-1.6406007e-05
-0.00010316196
-1.7661975e-05
-0.00010430648
-1.8888987e-05
-0.00010556366
-2.0083113e-05
-0.0001069391
-2.1239846e-05
-0.00010843893
-2.2354191e-05
-0.00011007011
-2.3420443e-05
-0.00011184041
-2.44322e-05
-0.00011375848
-2.5382121e-05
-0.00011583397
-2.6261895e-05
-0.00011807787
-2.7061955e-05
-0.00012050232
-2.7771418e-05
-0.0001231212
-2.8377679e-05
-0.00012594984
-2.8866275e-05
-0.00012900589
-2.9220405e-05
-0.00013230938
-2.9420659e-05
-0.00013588334
-2.9444263e-05
-0.00013975218
-2.9264813e-05
-0.00014394792
-2.8851181e-05
-0.00014850338
-2.8166777e-05
-0.00015345859
-2.7168234e-05
-0.00015886035
-2.5803961e-05
-0.00016476301
-2.4012168e-05
-0.00017123115
-2.1718453e-05
-0.00017834205
-1.8832643e-05
-0.00018618819
-1.5244585e-05
-0.00019488244
-1.081887e-05
-0.0002045627
-5.3871621e-06
-0.000215402
-0.00022761716
1.2613425e-06
6.652495e-06
-0.00023457341
1.2087651e-05
-0.00022093353
1.6519999e-05
-0.00020902364
2.0115146e-05
-0.00019848765
2.3007144e-05
-0.00018908588
2.5305737e-05
-0.00018064566
2.710113e-05
-0.00017303145
2.8467846e-05
-0.0001661344
2.9467814e-05
-0.00015986457
3.0152818e-05
-0.00015414736
3.0566362e-05
-0.00014892022
3.0745191e-05
-0.00014412962
3.0720467e-05
-0.00013972988
3.0518656e-05
-0.00013568348
3.016252e-05
-0.00013195471
2.9671557e-05
-0.00012851596
2.9062588e-05
-0.00012534159
2.8350169e-05
-0.00012240934
2.7546914e-05
-0.00011969963
2.6663771e-05
-0.00011719543
2.5710292e-05
-0.00011488141
2.4694828e-05
-0.00011274417
2.362471e-05
-0.00011077165
2.2506398e-05
-0.00010895328
2.1345583e-05
-0.00010727964
2.0147305e-05
-0.0001057423
1.8916026e-05
-0.00010433374
1.7655724e-05
-0.00010304736
1.6369933e-05
-0.00010187719
1.5061826e-05
-0.00010081796
1.373424e-05
-9.9865043e-05
1.2389754e-05
-9.9014333e-05
1.1030714e-05
-9.8262249e-05
9.6592877e-06
-9.7605627e-05
8.2774515e-06
-9.7041784e-05
6.8870501e-06
-9.6568432e-05
5.4897822e-06
-9.6183649e-05
4.08727e-06
-9.588592e-05
2.6810473e-06
-9.5674067e-05
1.2726119e-06
-9.5547265e-05
-1.365828e-07
-9.5505017e-05
-1.5450707e-06
-9.5547171e-05
-2.9513703e-06
-9.5673898e-05
-4.3539556e-06
-9.5885689e-05
-5.7512729e-06
-9.6183368e-05
-7.141682e-06
-9.6568108e-05
-8.5234828e-06
-9.704141e-05
-9.8948557e-06
-9.7605195e-05
-1.1253851e-05
-9.8261747e-05
-1.2598332e-05
-9.9013727e-05
-1.3925966e-05
-9.9864287e-05
-1.5234167e-05
-0.00010081702
-1.6520077e-05
-0.00010187605
-1.7780503e-05
-0.00010304604
-1.9011892e-05
-0.00010433227
-2.0210261e-05
-0.00010574072
-2.1371162e-05
-0.00010727802
-2.2489574e-05
-0.00010895169
-2.3559826e-05
-0.00011077016
-2.4575473e-05
-0.00011274283
-2.5529185e-05
-0.00011488025
-2.6412602e-05
-0.00011719445
-2.7216136e-05
-0.00011969878
-2.7928836e-05
-0.0001224085
-2.853806e-05
-0.00012534061
-2.9029283e-05
-0.00012851468
-2.9385649e-05
-0.00013195301
-2.9587692e-05
-0.00013568131
-2.9612609e-05
-0.00013972725
-2.9433969e-05
-0.00014412657
-2.902059e-05
-0.00014891674
-2.8335804e-05
-0.00015414338
-2.7336132e-05
-0.00015986
-2.5969853e-05
-0.00016612929
-2.4174994e-05
-0.00017302599
-2.1876961e-05
-0.00018064009
-1.8985265e-05
-0.00018907987
-1.5389519e-05
-0.00019847819
-1.0953873e-05
-0.00020899833
-5.5096456e-06
-0.00022084623
-0.00023428135
1.1545605e-06
6.6679966e-06
-0.00024124135
1.2115653e-05
-0.00022638112
1.6558175e-05
-0.00021346611
2.0161095e-05
-0.00020209052
2.3058928e-05
-0.00019198367
2.5361835e-05
-0.00018294852
2.7160229e-05
-0.00017482982
2.8528881e-05
-0.00016750302
2.952987e-05
-0.00016086554
3.0215155e-05
-0.00015483261
3.0628333e-05
-0.00014933338
3.0806248e-05
-0.00014430751
3.0780096e-05
-0.00013970372
3.0576405e-05
-0.00013547977
3.0217978e-05
-0.00013159627
2.9724394e-05
-0.00012802235
2.911252e-05
-0.00012472971
2.8396969e-05
-0.00012169377
2.7590376e-05
-0.00011889303
2.6703725e-05
-0.00011630876
2.5746573e-05
-0.00011392425
2.472729e-05
-0.00011172488
2.3653211e-05
-0.00010969757
2.2530805e-05
-0.00010783086
2.1365777e-05
-0.0001061146
2.0163186e-05
-0.0001045397
1.8927522e-05
-0.00010309807
1.7662767e-05
-0.0001017826
1.6372487e-05
-0.0001005869
1.505986e-05
-9.9505322e-05
1.3727738e-05
-9.853291e-05
1.2378691e-05
-9.7665277e-05
1.1015062e-05
-9.6898608e-05
9.6389938e-06
-9.6229551e-05
8.2524805e-06
-9.5655259e-05
6.8573612e-06
-9.5173305e-05
5.4553696e-06
-9.4781646e-05
4.0481187e-06
-9.4478662e-05
2.6371697e-06
-9.4263106e-05
1.2240123e-06
-9.41341e-05
-1.8986567e-07
-9.4091127e-05
-1.6030226e-06
-9.4134007e-05
-3.013975e-06
-9.4262933e-05
-4.4212217e-06
-9.4478435e-05
-5.8231942e-06
-9.4781385e-05
-7.2182738e-06
-9.5173022e-05
-8.6047288e-06
-9.5654944e-05
-9.9807453e-06
-9.6229172e-05
-1.1344355e-05
-9.6898127e-05
-1.2693427e-05
-9.766465e-05
-1.4025602e-05
-9.8532103e-05
-1.5338285e-05
-9.9504328e-05
-1.6628591e-05
-0.00010058574
-1.7893329e-05
-0.0001017813
-1.9128945e-05
-0.00010309665
-2.033149e-05
-0.00010453818
-2.1496505e-05
-0.000106113
-2.2618969e-05
-0.00010782922
-2.3693186e-05
-0.00010969593
-2.4712698e-05
-0.00011172332
-2.5670119e-05
-0.00011392282
-2.6557064e-05
-0.00011630751
-2.7363891e-05
-0.00011889194
-2.8079614e-05
-0.00012169278
-2.8691548e-05
-0.00012472867
-2.9185151e-05
-0.00012802108
-2.9543564e-05
-0.00013159458
-2.9747307e-05
-0.00013547757
-2.977354e-05
-0.00013970101
-2.9595767e-05
-0.00014430435
-2.9182727e-05
-0.00014932977
-2.8497633e-05
-0.00015482848
-2.7496879e-05
-0.00016086075
-2.6128576e-05
-0.0001674976
-2.4330589e-05
-0.00017482396
-2.2028124e-05
-0.00018294256
-1.9130441e-05
-0.00019197754
-1.5526864e-05
-0.00020208177
-1.1081176e-05
-0.00021344401
-5.6243064e-06
-0.00022630311
-0.00024096137
1.0557249e-06
6.6833867e-06
-0.00024792478
1.214377e-05
-0.00023184155
1.6596435e-05
-0.00021791881
2.0207089e-05
-0.00020570121
2.3110842e-05
-0.00019488744
2.5418049e-05
-0.00018525576
2.721952e-05
-0.00017663129
2.8590121e-05
-0.00016887364
2.9592183e-05
-0.0001618676
3.0277753e-05
-0.0001555182
3.0690625e-05
-0.00014974624
3.0867665e-05
-0.00014448456
3.0840202e-05
-0.00013967624
3.0634737e-05
-0.00013527431
3.0274182e-05
-0.0001312357
2.9778081e-05
-0.00012752626
2.9163423e-05
-0.00012411503
2.8444801e-05
-0.00012097516
2.7634956e-05
-0.00011808316
2.6744838e-05
-0.00011541865
2.5784087e-05
-0.00011296348
2.4761043e-05
-0.00011070184
2.3683112e-05
-0.00010861962
2.255672e-05
-0.00010670448
2.1387635e-05
-0.0001049455
2.0180866e-05
-0.00010333294
1.8940958e-05
-0.00010185814
1.7671854e-05
-0.00010051351
1.6377187e-05
-9.9292212e-05
1.5060101e-05
-9.8188247e-05
1.3723522e-05
-9.7196314e-05
1.2369974e-05
-9.6311741e-05
1.1001855e-05
-9.5530471e-05
9.6212474e-06
-9.4848956e-05
8.2301838e-06
-9.4264177e-05
6.8304435e-06
-9.3773579e-05
5.4238236e-06
-9.3375007e-05
4.0118962e-06
-9.3066749e-05
2.596292e-06
-9.2847483e-05
1.1784567e-06
-9.2716279e-05
-2.4005402e-07
-9.2672596e-05
-1.6578405e-06
-9.2716234e-05
-3.0733694e-06
-9.2847384e-05
-4.4852175e-06
-9.3066601e-05
-5.8917695e-06
-9.3374812e-05
-7.2914689e-06
-9.3773337e-05
-8.6825184e-06
-9.4263874e-05
-1.0063141e-05
-9.4848564e-05
-1.1431293e-05
-9.5529956e-05
-1.2784878e-05
-9.6311079e-05
-1.4121461e-05
-9.71955e-05
-1.543851e-05
-9.8187295e-05
-1.6733087e-05
-9.9291141e-05
-1.8002087e-05
-0.00010051232
-1.9241894e-05
-0.00010185682
-2.0448618e-05
-0.00010333147
-2.1617718e-05
-0.00010494388
-2.274422e-05
-0.00010670274
-2.382232e-05
-0.00010861781
-2.4845594e-05
-0.00011070006
-2.5806561e-05
-0.00011296183
-2.669686e-05
-0.00011541723
-2.7506781e-05
-0.000118082
-2.822539e-05
-0.00012097419
-2.8839949e-05
-0.00012411409
-2.9335957e-05
-0.00012752509
-2.969647e-05
-0.00013123405
-2.9902008e-05
-0.00013527204
-2.9929614e-05
-0.00013967338
-2.9752749e-05
-0.00014448123
-2.9339996e-05
-0.0001497425
-2.865449e-05
-0.000155514
-2.7652456e-05
-0.00016186276
-2.628193e-05
-0.00016886814
-2.4480582e-05
-0.00017662529
-2.2173513e-05
-0.00018524964
-1.9269703e-05
-0.00019488132
-1.5658221e-05
-0.00020569327
-1.1202439e-05
-0.00021789977
-5.7329156e-06
-0.00023177265
-0.00024765723
9.6296528e-07
6.6987761e-06
-0.00025462358
1.2172077e-05
-0.00023731488
1.6634996e-05
-0.00022238175
2.0253589e-05
-0.00020931982
2.3163337e-05
-0.00019779721
2.5475045e-05
-0.00018756748
2.7279697e-05
-0.00017843595
2.8652409e-05
-0.00017024636
2.9655623e-05
-0.00016287081
3.0341584e-05
-0.00015620417
3.0754169e-05
-0.00015015883
3.0930394e-05
-0.00014466079
3.0901625e-05
-0.00013964747
3.0694471e-05
-0.00013506716
3.0331856e-05
-0.00013087308
2.9833397e-05
-0.0001270278
2.9216063e-05
-0.00012349769
2.8494502e-05
-0.0001202536
2.768146e-05
-0.00011727011
2.678795e-05
-0.00011452515
2.5823627e-05
-0.00011199915
2.479688e-05
-0.0001096751
2.3715121e-05
-0.00010753785
2.2584815e-05
-0.00010557418
2.1411723e-05
-0.0001037724
2.0200881e-05
-0.0001021221
1.8956817e-05
-0.00010061407
1.7683492e-05
-9.9240188e-05
1.6384518e-05
-9.7993225e-05
1.5063069e-05
-9.6866804e-05
1.3722074e-05
-9.5855305e-05
1.2364092e-05
-9.4953767e-05
1.0991517e-05
-9.4157882e-05
9.6064497e-06
-9.3463898e-05
8.2109121e-06
-9.2868625e-05
6.8066873e-06
-9.2369364e-05
5.3955538e-06
-9.1963858e-05
3.9790982e-06
-9.1650304e-05
2.5589476e-06
-9.1427315e-05
1.136567e-06
-9.129391e-05
-2.8650562e-07
-9.1249506e-05
-1.7088568e-06
-9.1293896e-05
-3.1289535e-06
-9.142727e-05
-4.5453596e-06
-9.1650209e-05
-5.9564597e-06
-9.1963694e-05
-7.3606938e-06
-9.2369117e-05
-8.7562677e-06
-9.2868282e-05
-1.0141391e-05
-9.3463455e-05
-1.1513996e-05
-9.4157333e-05
-1.2871975e-05
-9.4953115e-05
-1.4212899e-05
-9.5854558e-05
-1.5534244e-05
-9.6865966e-05
-1.6833084e-05
-9.7992281e-05
-1.8106319e-05
-9.92391e-05
-1.9350324e-05
-0.00010061279
-2.0561186e-05
-0.00010212063
-2.1734329e-05
-0.00010377072
-2.2864752e-05
-0.00010557234
-2.3946622e-05
-0.00010753592
-2.4973498e-05
-0.00010967321
-2.5937893e-05
-0.00011199742
-2.6831456e-05
-0.00011452368
-2.7644469e-05
-0.00011726896
-2.836599e-05
-0.00012025269
-2.8983248e-05
-0.00012349681
-2.9481706e-05
-0.00012702665
-2.9844365e-05
-0.00013087137
-3.0051689e-05
-0.00013506474
-3.0080634e-05
-0.00013964441
-2.9904575e-05
-0.00014465731
-2.9491984e-05
-0.00015015507
-2.8805912e-05
-0.0001562001
-2.780247e-05
-0.00016286618
-2.64296e-05
-0.00017024104
-2.4624816e-05
-0.00017843005
-2.2313062e-05
-0.00018756142
-1.9403067e-05
-0.00019779129
-1.5783625e-05
-0.00020931274
-1.131772e-05
-0.00022236565
-5.835519e-06
-0.00023725487
-0.00025436893
8.7620829e-07
6.7141391e-06
-0.00026133768
1.2200505e-05
-0.00024280122
1.6673799e-05
-0.00022685501
2.0300365e-05
-0.00021294637
2.3216267e-05
-0.00020071307
2.5532531e-05
-0.00018988373
2.7340501e-05
-0.00018024389
2.8715414e-05
-0.00017162127
2.9719909e-05
-0.00016387528
3.040632e-05
-0.00015689058
3.0818701e-05
-0.00015057119
3.099412e-05
-0.00014483621
3.0964083e-05
-0.00013961741
3.0755233e-05
-0.00013485832
3.0390615e-05
-0.00013050845
2.9889846e-05
-0.00012652705
2.9269964e-05
-0.00012287779
2.8545575e-05
-0.00011952922
2.7729467e-05
-0.00011645399
2.6832639e-05
-0.00011362833
2.5864821e-05
-0.00011103131
2.4834404e-05
-0.0001086447
2.374887e-05
-0.00010645229
2.2614669e-05
-0.00010443999
2.1437619e-05
-0.00010259533
2.0222728e-05
-0.00010090723
1.8974576e-05
-9.9365891e-05
1.7697088e-05
-9.7962714e-05
1.6393904e-05
-9.669002e-05
1.506816e-05
-9.5541073e-05
1.3722825e-05
-9.4509948e-05
1.2360445e-05
-9.3591401e-05
1.0983461e-05
-9.2780876e-05
9.5939616e-06
-9.2074413e-05
8.1940022e-06
-9.1468644e-05
6.7853505e-06
-9.0960726e-05
5.3697992e-06
-9.0548286e-05
3.948914e-06
-9.0229433e-05
2.5243283e-06
-9.0002709e-05
1.0974878e-06
-8.9867085e-05
-3.3005558e-07
-8.9821942e-05
-1.7569025e-06
-8.9867065e-05
-3.1814936e-06
-9.0002658e-05
-4.6023921e-06
-9.0229327e-05
-6.0179585e-06
-9.0548107e-05
-7.4266332e-06
-9.096046e-05
-8.8266073e-06
-9.1468287e-05
-1.0216105e-05
-9.2073976e-05
-1.1593041e-05
-9.2780375e-05
-1.2955329e-05
-9.3590846e-05
-1.4300531e-05
-9.4509333e-05
-1.5626146e-05
-9.5540372e-05
-1.6929218e-05
-9.6689186e-05
-1.8206645e-05
-9.7961694e-05
-1.9454767e-05
-9.9364648e-05
-2.0669661e-05
-0.00010090575
-2.1846709e-05
-0.00010259364
-2.2980908e-05
-0.00010443816
-2.4066416e-05
-0.00010645039
-2.5096807e-05
-0.00010864284
-2.606459e-05
-0.00011102961
-2.6961406e-05
-0.00011362689
-2.777751e-05
-0.00011645284
-2.8501928e-05
-0.00011952829
-2.9121845e-05
-0.00012287687
-2.9622689e-05
-0.00012652582
-2.9987403e-05
-0.00013050663
-3.0196391e-05
-0.00013485578
-3.0226529e-05
-0.00013961425
-3.0051128e-05
-0.00014483274
-2.9638579e-05
-0.00015056759
-2.8951878e-05
-0.00015688682
-2.7947033e-05
-0.000163871
-2.6571856e-05
-0.00017161624
-2.4763679e-05
-0.0001802382
-2.244726e-05
-0.00018987786
-1.9531088e-05
-0.00020070744
-1.5903665e-05
-0.00021294018
-1.1427607e-05
-0.00022684169
-5.9326976e-06
-0.00024274981
-0.00026109649
7.9488528e-07
6.7293897e-06
-0.00026806707
1.2228907e-05
-0.00024830074
1.6712513e-05
-0.00023133861
2.03471e-05
-0.00021658096
2.3269125e-05
-0.0002036351
2.5590016e-05
-0.00019220463
2.7401331e-05
-0.00018205521
2.877852e-05
-0.00017299847
2.978434e-05
-0.0001648811
3.0471293e-05
-0.00015757754
3.0883517e-05
-0.00015098341
3.1058198e-05
-0.0001450109
3.10269e-05
-0.00013958611
3.0816391e-05
-0.00013464782
3.0449757e-05
-0.00013014181
2.9946701e-05
-0.000126024
2.9324268e-05
-0.00012225535
2.8597118e-05
-0.00011880208
2.7778012e-05
-0.00011563487
2.6877986e-05
-0.00011272831
2.5906754e-05
-0.00011006007
2.4872761e-05
-0.00010761071
2.3783495e-05
-0.00010536302
2.2645463e-05
-0.00010330197
2.1464475e-05
-0.00010141433
2.0245589e-05
-9.9688356e-05
1.8993368e-05
-9.8113659e-05
1.7711772e-05
-9.6681133e-05
1.6404428e-05
-9.5382665e-05
1.5074484e-05
-9.4211145e-05
1.3724877e-05
-9.3160329e-05
1.2358177e-05
-9.2224717e-05
1.0976823e-05
-9.139951e-05
9.5829345e-06
-9.068054e-05
8.178566e-06
-9.0064262e-05
6.7655068e-06
-8.9547683e-05
5.3455439e-06
-8.9128309e-05
3.9202461e-06
-8.8804152e-05
2.4912375e-06
-8.8573686e-05
1.0599679e-06
-8.8435832e-05
-3.7201541e-07
-8.8389944e-05
-1.8032958e-06
-8.8435803e-05
-3.2323189e-06
-8.857362e-05
-4.6576279e-06
-8.8804037e-05
-6.0775854e-06
-8.9128134e-05
-7.4906236e-06
-8.9547441e-05
-8.8949337e-06
-9.0063961e-05
-1.0288738e-05
-9.0680192e-05
-1.1669968e-05
-9.1399128e-05
-1.3036541e-05
-9.2224295e-05
-1.4386019e-05
-9.3159838e-05
-1.5715877e-05
-9.4210537e-05
-1.7023153e-05
-9.5381891e-05
-1.8304713e-05
-9.6680157e-05
-1.955687e-05
-9.8112472e-05
-2.0775681e-05
-9.9686966e-05
-2.1956542e-05
-0.00010141276
-2.3094449e-05
-0.00010330027
-2.4183572e-05
-0.00010536125
-2.5217474e-05
-0.00010760896
-2.6188646e-05
-0.00011005842
-2.7088705e-05
-0.00011272685
-2.7907871e-05
-0.00011563365
-2.8635144e-05
-0.00011880104
-2.9257666e-05
-0.00012225432
-2.9760823e-05
-0.00012602269
-3.0127492e-05
-0.00013013993
-3.0338033e-05
-0.00013464526
-3.0369245e-05
-0.00013958301
-3.01944e-05
-0.00014500761
-2.9781818e-05
-0.00015098015
-2.9094428e-05
-0.00015757424
-2.8088104e-05
-0.00016487729
-2.6710552e-05
-0.00017299382
-2.4898909e-05
-0.00018204981
-2.2577776e-05
-0.00019219903
-1.9655387e-05
-0.0002036298
-1.6019951e-05
-0.00021657565
-1.1533701e-05
-0.00023132791
-6.0260459e-06
-0.00024825749
-0.00026783991
7.1740861e-07
6.7447325e-06
-0.00027481181
1.2257426e-05
-0.00025381343
1.6751425e-05
-0.00023583261
2.0394072e-05
-0.00022022361
2.3322302e-05
-0.00020656332
2.5647885e-05
-0.00019453022
2.7462637e-05
-0.00018386996
2.8842166e-05
-0.000174378
2.9849392e-05
-0.00016588832
3.053699e-05
-0.00015826514
3.0949192e-05
-0.0001513956
3.1123244e-05
-0.00014518496
3.109079e-05
-0.00013955365
3.0878677e-05
-0.00013443571
3.0510066e-05
-0.00012977319
3.0004723e-05
-0.00012551866
2.9379736e-05
-0.00012163035
2.8649801e-05
-0.00011807215
2.7827713e-05
-0.00011481278
2.6924529e-05
-0.00011182514
2.5949974e-05
-0.00010908551
2.4912506e-05
-0.00010657325
2.3819616e-05
-0.00010427012
2.2677832e-05
-0.0001021602
2.1492985e-05
-0.00010022947
2.0270151e-05
-9.8465532e-05
1.901391e-05
-9.6857407e-05
1.7728243e-05
-9.5395477e-05
1.6416788e-05
-9.4071197e-05
1.5082701e-05
-9.287707e-05
1.3728913e-05
-9.1806528e-05
1.2357984e-05
-9.0853802e-05
1.0972349e-05
-9.001386e-05
9.5741317e-06
-8.9282336e-05
8.1653971e-06
-8.8655513e-05
6.7479473e-06
-8.8130247e-05
5.3235791e-06
-8.7703925e-05
3.8938729e-06
-8.737446e-05
2.4604524e-06
-8.7140249e-05
1.0247698e-06
-8.7000165e-05
-4.1162509e-07
-8.6953532e-05
-1.8473118e-06
-8.7000132e-05
-3.2807311e-06
-8.7140182e-05
-4.7104222e-06
-8.7374362e-05
-6.1347442e-06
-8.7703794e-05
-7.5521224e-06
-8.813008e-05
-8.9607529e-06
-8.8655311e-05
-1.0358861e-05
-8.9282102e-05
-1.1744383e-05
-9.0013586e-05
-1.3115235e-05
-9.0853463e-05
-1.4468965e-05
-9.1806086e-05
-1.5803031e-05
-9.287649e-05
-1.7114449e-05
-9.4070451e-05
-1.8400064e-05
-9.5394561e-05
-1.9656184e-05
-9.6856329e-05
-2.0878874e-05
-9.8464295e-05
-2.2063535e-05
-0.00010022808
-2.3205159e-05
-0.00010215867
-2.4297905e-05
-0.00010426848
-2.5335317e-05
-0.00010657156
-2.6309866e-05
-0.00010908384
-2.7213145e-05
-0.0001118236
-2.8035346e-05
-0.00011481142
-2.876543e-05
-0.00011807098
-2.9390497e-05
-0.00012162923
-2.9895874e-05
-0.00012551734
-3.0264398e-05
-0.00012977139
-3.0476376e-05
-0.00013443331
-3.0508578e-05
-0.00013955078
-3.0334209e-05
-0.000145182
-2.9921531e-05
-0.0001513928
-2.9233374e-05
-0.00015826242
-2.8225509e-05
-0.00016588513
-2.6845493e-05
-0.00017437386
-2.5030318e-05
-0.00018386496
-2.2704397e-05
-0.00019452498
-1.9775762e-05
-0.0002065584
-1.6132272e-05
-0.00022021916
-1.163582e-05
-0.00023582434
-6.1153878e-06
-0.00025377795
-0.00027459921
6.4393289e-07
6.7601024e-06
-0.0002815719
1.2285926e-05
-0.00025933926
1.6790348e-05
-0.00024033703
2.044109e-05
-0.00022387435
2.3375567e-05
-0.0002094978
2.5705889e-05
-0.00019686054
2.752414e-05
-0.0001856882
2.8906056e-05
-0.00017575992
2.9914737e-05
-0.000166897
3.0603036e-05
-0.00015895344
3.1015303e-05
-0.00015180786
3.1188841e-05
-0.0001453585
3.1155359e-05
-0.00013952016
3.0941754e-05
-0.00013422211
3.0571241e-05
-0.00012940266
3.0063637e-05
-0.00012501107
2.9436096e-05
-0.0001210028
2.8703358e-05
-0.00011733942
2.7878271e-05
-0.00011398768
2.6971916e-05
-0.00011091879
2.5994053e-05
-0.00010810763
2.4953151e-05
-0.00010553236
2.3856711e-05
-0.00010317366
2.2711263e-05
-0.00010101476
2.1522643e-05
-9.9040836e-05
2.0295932e-05
-9.7238831e-05
1.9035727e-05
-9.5597188e-05
1.7746027e-05
-9.4105788e-05
1.6430487e-05
-9.2755643e-05
1.5092277e-05
-9.1538872e-05
1.3734343e-05
-9.0448578e-05
1.235924e-05
-8.9478712e-05
1.0969399e-05
-8.8624003e-05
9.5669361e-06
-8.7879888e-05
8.1539151e-06
-8.7242474e-05
6.7321354e-06
-8.6708483e-05
5.3034101e-06
-8.6275181e-05
3.8693208e-06
-8.5940386e-05
2.431513e-06
-8.5702422e-05
9.9143613e-07
-8.5560104e-05
-4.4934309e-07
-8.5512734e-05
-1.8894145e-06
-8.5560076e-05
-3.3272066e-06
-8.570237e-05
-4.7612675e-06
-8.5940317e-05
-6.1899425e-06
-8.6275099e-05
-7.6116595e-06
-8.670838e-05
-9.0246086e-06
-8.7242341e-05
-1.0427017e-05
-8.7879711e-05
-1.1816818e-05
-8.8623764e-05
-1.3191913e-05
-8.9478386e-05
-1.4549835e-05
-9.0448143e-05
-1.5888033e-05
-9.1538311e-05
-1.7203509e-05
-9.2754953e-05
-1.8493115e-05
-9.4104976e-05
-1.9753166e-05
-9.5596253e-05
-2.0979728e-05
-9.7237754e-05
-2.2168187e-05
-9.9039597e-05
-2.3313526e-05
-0.00010101335
-2.4409876e-05
-0.0001031721
-2.5450778e-05
-0.00010553069
-2.6428664e-05
-0.00010810593
-2.7335119e-05
-0.00011091717
-2.8160274e-05
-0.00011398624
-2.8893084e-05
-0.0001173382
-2.952057e-05
-0.00012100171