/*--------------------------------*- C++ -*----------------------------------*\
| =========                 |                                                 |
| \\      /  F ield         | OpenFOAM: The Open Source CFD Toolbox           |
|  \\    /   O peration     | Version:  v2006                                 |
|   \\  /    A nd           | Website:  www.openfoam.com                      |
|    \\/     M anipulation  |                                                 |
\*---------------------------------------------------------------------------*/
FoamFile
{
    version     2.0;
    format      ascii;
    class       volVectorField;
    location    "10000";
    object      U;
}
// * * * * * * * * * * * * * * * * * * * * * * * * * * * * * * * * * * * * * //

dimensions      [0 1 -1 0 0 0 0];


internalField   nonuniform List<vector> 
102907
(
(0.094545027 7.8431229e-07 5.0300142e-19)
(0.094447156 -3.7996804e-07 -5.3689964e-19)
(0.094407401 7.0278876e-07 -1.6812653e-20)
(0.094393112 3.7059143e-07 -1.0726029e-18)
(0.094388773 8.9155477e-07 1.0643564e-18)
(0.094387777 8.9207038e-07 2.1144381e-18)
(0.094387727 1.2308714e-06 -4.2301472e-18)
(0.09438786 1.3088673e-06 2.1178563e-18)
(0.094387952 1.5952337e-06 8.3249474e-21)
(0.094387956 1.7616218e-06 0)
(0.094387885 1.9513825e-06 0)
(0.094387771 2.1255815e-06 -2.1841745e-18)
(0.094387644 2.2963858e-06 2.2115703e-18)
(0.094387517 2.4517026e-06 -2.2132099e-18)
(0.094387398 2.5936397e-06 2.240924e-18)
(0.094387292 2.7159654e-06 0)
(0.094387207 2.8312795e-06 -2.2836211e-18)
(0.094387154 2.9550263e-06 4.5922078e-18)
(0.09438715 3.0882221e-06 4.5750232e-28)
(0.094387205 3.2550525e-06 -2.3367555e-18)
(0.094387323 3.4280731e-06 0)
(0.094387496 3.5834761e-06 -2.370553e-18)
(0.09438771 3.7373917e-06 4.788854e-18)
(0.094387945 3.8884235e-06 1.9458015e-28)
(0.09438818 4.0279425e-06 -2.4377225e-18)
(0.0943884 4.1510323e-06 -4.789651e-21)
(0.094388595 4.2649747e-06 0)
(0.094388761 4.3733382e-06 -1.2455797e-18)
(0.094388898 4.4834609e-06 1.2553557e-18)
(0.094389011 4.6052695e-06 0)
(0.094389102 4.7386968e-06 1.2800458e-18)
(0.094389177 4.8699156e-06 -1.2900308e-18)
(0.094389237 4.9991428e-06 -1.2950261e-18)
(0.094389287 5.1366015e-06 1.3102118e-18)
(0.094389328 5.2707034e-06 -5.137801e-21)
(0.094389362 5.3909675e-06 0)
(0.094389388 5.4946994e-06 -3.3396054e-19)
(0.09438941 5.607609e-06 3.4181908e-19)
(0.094389425 5.7317769e-06 0)
(0.094389435 5.8427769e-06 5.3408467e-21)
(0.094389439 5.94621e-06 -9.149859e-20)
(0.094389437 6.0623212e-06 9.1576678e-20)
(0.094389427 6.1949754e-06 -3.4244387e-19)
(0.094389409 6.325822e-06 5.3108916e-21)
(0.094389382 6.4567189e-06 3.4263731e-19)
(0.094389345 6.577723e-06 6.6970101e-19)
(0.094389295 6.6908189e-06 -1.3345984e-18)
(0.09438923 6.8103303e-06 -6.6489054e-19)
(0.094389149 6.9335485e-06 1.3096023e-18)
(0.094389049 7.0555235e-06 1.2997902e-18)
(0.094388932 7.1711097e-06 -1.290032e-18)
(0.0943888 7.2904932e-06 0)
(0.094388659 7.4053106e-06 0)
(0.094388516 7.5121421e-06 0)
(0.094388382 7.6299776e-06 -4.888337e-21)
(0.094388266 7.7629821e-06 0)
(0.094388177 7.9022015e-06 2.4597038e-18)
(0.094388117 8.0460239e-06 -2.4501636e-18)
(0.094388086 8.1951949e-06 4.738783e-21)
(0.094388077 8.3353268e-06 -4.7014032e-21)
(0.09438808 8.475494e-06 0)
(0.094388085 8.6179163e-06 0)
(0.094388084 8.7577178e-06 2.3495863e-18)
(0.094388072 8.8983915e-06 -2.3258125e-18)
(0.094388052 9.0412608e-06 0)
(0.094388029 9.1865648e-06 0)
(0.094388009 9.3248805e-06 -2.2815838e-18)
(0.094387994 9.4707104e-06 1.2315334e-27)
(0.094387984 9.6331444e-06 2.2432722e-18)
(0.094387973 9.8036875e-06 0)
(0.094387953 9.9944353e-06 -8.5822814e-21)
(0.094387918 1.0185016e-05 0)
(0.094387875 1.0373452e-05 -8.4414103e-21)
(0.094387839 1.0562997e-05 0)
(0.094387825 1.0769552e-05 8.3105598e-21)
(0.094387832 1.0946748e-05 -2.1122577e-18)
(0.094387835 1.1187895e-05 2.0984208e-18)
(0.094387782 1.1355037e-05 -1.6300064e-20)
(0.094387655 1.1633287e-05 0)
(0.094387485 1.1833526e-05 5.1754491e-19)
(0.094387402 1.2006636e-05 -5.0253637e-19)
(0.094548802 1.2406189e-06 5.2354755e-19)
(0.094455359 -4.1496778e-07 -5.2658029e-19)
(0.094419002 8.6558833e-07 4.9616028e-20)
(0.094406736 3.1836802e-07 3.3036899e-20)
(0.09440331 8.6557374e-07 2.1350208e-18)
(0.094402643 8.0034239e-07 -2.0933174e-18)
(0.094402692 1.0986983e-06 8.1847007e-21)
(0.094402837 1.1380701e-06 -2.106541e-18)
(0.094402912 1.3569201e-06 2.1146878e-18)
(0.094402892 1.518105e-06 -1.6732012e-20)
(0.094402801 1.7365063e-06 2.1612396e-18)
(0.094402672 1.9493325e-06 8.9096176e-28)
(0.09440253 2.1657117e-06 -2.2093871e-18)
(0.094402385 2.3544669e-06 -8.67395e-21)
(0.094402248 2.5105746e-06 0)
(0.094402128 2.6318833e-06 2.268688e-18)
(0.094402039 2.7081169e-06 -2.2838788e-18)
(0.094401996 2.7669878e-06 1.3470267e-20)
(0.094402012 2.8408985e-06 2.3274147e-18)
(0.094402094 2.938664e-06 -2.3285929e-18)
(0.094402237 3.0799708e-06 0)
(0.094402429 3.2657129e-06 -2.3902163e-18)
(0.094402651 3.4623293e-06 2.3955195e-18)
(0.094402881 3.6507545e-06 0)
(0.094403102 3.8119802e-06 4.7537895e-21)
(0.094403302 3.9332527e-06 4.7913467e-21)
(0.094403474 4.0258034e-06 0)
(0.094403617 4.0894901e-06 1.245882e-18)
(0.094403734 4.1310631e-06 1.3030397e-27)
(0.094403828 4.1794041e-06 -1.2752201e-18)
(0.094403904 4.2631547e-06 -4.9810242e-21)
(0.094403966 4.404915e-06 -1.2799928e-18)
(0.094404017 4.6002929e-06 1.294955e-18)
(0.094404059 4.786428e-06 6.5758526e-19)
(0.094404092 4.9254697e-06 -6.5240226e-19)
(0.094404119 5.0300015e-06 1.0353649e-20)
(0.094404139 5.0873708e-06 3.3910328e-19)
(0.094404154 5.1509918e-06 -6.7821273e-19)
(0.094404163 5.2180073e-06 3.337921e-19)
(0.094404168 5.2768025e-06 -5.3394318e-21)
(0.094404167 5.4027209e-06 5.3808605e-21)
(0.094404159 5.587393e-06 -5.3831673e-21)
(0.094404146 5.7501185e-06 0)
(0.094404124 5.8778928e-06 -3.4481674e-19)
(0.094404095 5.9941252e-06 -3.4751299e-19)
(0.094404055 6.059654e-06 6.6894315e-19)
(0.094404002 6.1133296e-06 5.1871867e-21)
(0.094403935 6.2171334e-06 5.1485376e-21)
(0.094403851 6.37688e-06 0)
(0.094403751 6.5285978e-06 1.0144062e-20)
(0.094403632 6.6451169e-06 -1.2887395e-18)
(0.094403499 6.7494938e-06 1.2790894e-18)
(0.094403354 6.8399816e-06 -1.259564e-18)
(0.094403205 6.9229375e-06 1.2599081e-18)
(0.094403062 6.9707357e-06 -1.2454746e-18)
(0.094402934 7.0249323e-06 1.2408237e-18)
(0.09440283 7.1394302e-06 2.4673964e-18)
(0.094402755 7.297753e-06 -2.438743e-18)
(0.094402709 7.4903476e-06 2.4102096e-18)
(0.094402687 7.6659152e-06 -2.3911748e-18)
(0.09440268 7.8336998e-06 0)
(0.094402678 7.983217e-06 9.2452051e-21)
(0.094402671 8.1101985e-06 -2.3474021e-18)
(0.094402657 8.2302747e-06 2.3233877e-18)
(0.094402634 8.3366431e-06 -2.3083693e-18)
(0.094402608 8.4637434e-06 2.2797674e-18)
(0.094402584 8.5560453e-06 8.8631179e-21)
(0.094402565 8.6225359e-06 2.2491262e-18)
(0.09440255 8.7260622e-06 -2.2205491e-18)
(0.094402532 8.881146e-06 2.2093599e-18)
(0.0944025 9.0871667e-06 8.5527347e-21)
(0.094402451 9.2972922e-06 -4.3564103e-18)
(0.094402387 9.5229241e-06 2.5196865e-20)
(0.094402326 9.7460472e-06 2.1308141e-18)
(0.09440229 9.9886973e-06 -2.474886e-20)
(0.094402284 1.0126788e-05 1.6355965e-20)
(0.094402282 1.0390082e-05 0)
(0.094402224 1.0480728e-05 1.6089877e-20)
(0.09440208 1.0806484e-05 0)
(0.094401873 1.09375e-05 0)
(0.094401758 1.1180727e-05 0)
(0.094552243 1.5163219e-06 -5.1291e-19)
(0.094462884 -4.9264695e-07 5.1652242e-19)
(0.094429743 8.8863319e-07 9.7615748e-19)
(0.094419292 2.8127351e-07 -1.0419928e-18)
(0.094416614 8.2239132e-07 -3.2442235e-20)
(0.094416204 7.4743177e-07 0)
(0.094416321 1.0394226e-06 3.250463e-20)
(0.094416469 1.0846679e-06 -2.0956277e-18)
(0.094416525 1.2743751e-06 -5.31698e-27)
(0.094416485 1.3760972e-06 2.1524111e-18)
(0.094416382 1.5227049e-06 0)
(0.094416244 1.6684408e-06 2.1777878e-18)
(0.094416089 1.8400507e-06 -2.1985594e-18)
(0.094415926 2.0262759e-06 0)
(0.094415768 2.2156564e-06 0)
(0.094415632 2.3890219e-06 2.2507756e-18)
(0.094415541 2.5369292e-06 -2.2706647e-18)
(0.094415512 2.6391193e-06 -2.694569e-20)
(0.094415556 2.6918512e-06 2.3099475e-18)
(0.09441567 2.7358345e-06 -2.3476372e-18)
(0.094415842 2.809213e-06 -1.8420885e-20)
(0.094416053 2.9062283e-06 9.2857186e-21)
(0.094416281 3.0339655e-06 0)
(0.094416505 3.185696e-06 0)
(0.094416712 3.349228e-06 -2.4345584e-18)
(0.094416892 3.511942e-06 2.4536505e-18)
(0.094417043 3.6542381e-06 -9.6592234e-21)
(0.094417167 3.7754835e-06 1.2459592e-18)
(0.094417265 3.8605014e-06 -1.2653805e-18)
(0.094417344 3.9020696e-06 9.8846079e-21)
(0.094417407 3.9246114e-06 0)
(0.094417459 3.972568e-06 0)
(0.094417502 4.073588e-06 1.0113891e-20)
(0.094417537 4.2233261e-06 -6.5225875e-19)
(0.094417565 4.4014226e-06 6.5727294e-19)
(0.094417588 4.5799485e-06 -6.8303233e-19)
(0.094417604 4.7244131e-06 6.6223042e-19)
(0.094417614 4.8006661e-06 -1.0509443e-20)
(0.094417619 4.8324766e-06 -1.6415801e-19)
(0.094417619 4.8349803e-06 1.7076746e-19)
(0.094417614 4.8514206e-06 8.6038803e-20)
(0.094417603 4.9333106e-06 9.6796741e-20)
(0.094417586 5.0564485e-06 -1.7079892e-19)
(0.094417563 5.2015389e-06 3.3905042e-19)
(0.094417532 5.3729411e-06 -1.0043164e-18)
(0.094417491 5.5846903e-06 6.5760457e-19)
(0.094417437 5.7389647e-06 -6.6307925e-19)
(0.09441737 5.8455857e-06 -6.5815735e-19)
(0.094417287 5.9300972e-06 1.3065493e-18)
(0.094417188 5.9728047e-06 -1.2968556e-18)
(0.094417071 6.0220656e-06 -1.5184178e-28)
(0.094416937 6.0528497e-06 2.5652811e-18)
(0.094416791 6.0838458e-06 -1.268118e-18)
(0.094416638 6.1325747e-06 0)
(0.094416486 6.221106e-06 0)
(0.094416347 6.3645076e-06 -9.6849269e-21)
(0.094416229 6.5455286e-06 0)
(0.094416139 6.7596706e-06 0)
(0.09441608 6.9641193e-06 9.4624096e-21)
(0.094416049 7.1215446e-06 -9.3877064e-21)
(0.094416036 7.2283062e-06 0)
(0.094416033 7.3072184e-06 9.2369243e-21)
(0.094416029 7.3729913e-06 0)
(0.094416017 7.3995698e-06 -1.8167616e-20)
(0.094415997 7.4345146e-06 -2.287571e-18)
(0.094415971 7.4996697e-06 8.9277786e-21)
(0.094415944 7.599596e-06 2.2475308e-18)
(0.09441592 7.7550246e-06 0)
(0.094415897 7.936291e-06 -3.475043e-20)
(0.094415869 8.1574596e-06 2.203114e-18)
(0.094415825 8.4104212e-06 -2.1820198e-18)
(0.09441576 8.6541355e-06 -2.1438868e-18)
(0.094415677 8.8817574e-06 2.0892511e-18)
(0.094415595 9.057635e-06 3.3092923e-20)
(0.094415541 9.2892912e-06 -2.0801207e-18)
(0.094415527 9.3605213e-06 -4.8635861e-20)
(0.094415528 9.6671133e-06 1.0269745e-18)
(0.094415475 9.6285632e-06 1.0483112e-18)
(0.094415322 9.9958322e-06 0)
(0.094415086 9.9058143e-06 -4.9825782e-19)
(0.094414942 1.0326768e-05 4.8138919e-19)
(0.094555157 1.6753782e-06 0)
(0.094469565 -5.4395491e-07 6.3339896e-20)
(0.094439629 8.851875e-07 1.0562661e-18)
(0.094430796 2.5749473e-07 -9.9489175e-19)
(0.094428753 7.9177847e-07 2.0830013e-18)
(0.094428546 7.1455975e-07 -2.0212467e-18)
(0.094428713 1.0140472e-06 -6.4556177e-20)
(0.094428856 1.0985448e-06 0)
(0.094428894 1.280633e-06 -3.2922314e-20)
(0.094428842 1.3488271e-06 -2.1297704e-18)
(0.094428737 1.4531328e-06 4.304696e-18)
(0.094428602 1.5481252e-06 -2.1745172e-18)
(0.09442844 1.6623489e-06 0)
(0.094428257 1.7835943e-06 -2.217598e-18)
(0.094428071 1.9288638e-06 2.2210941e-18)
(0.094427913 2.0982807e-06 -2.259232e-18)
(0.094427818 2.2752323e-06 -2.9232753e-27)
(0.094427806 2.4337514e-06 4.6172577e-18)
(0.09442788 2.5503884e-06 -2.3375858e-18)
(0.09442803 2.617236e-06 0)
(0.094428231 2.6584112e-06 1.8425515e-20)
(0.094428459 2.7001245e-06 0)
(0.094428689 2.7700084e-06 0)
(0.094428904 2.8615257e-06 0)
(0.094429093 2.9660102e-06 1.9021738e-20)
(0.094429253 3.0900171e-06 -1.2268509e-18)
(0.094429383 3.2263285e-06 -9.6586555e-21)
(0.094429488 3.3670074e-06 1.2457834e-18)
(0.094429572 3.5009565e-06 1.9613854e-20)
(0.094429639 3.6114478e-06 -1.2648333e-18)
(0.094429693 3.6675085e-06 1.2744365e-18)
(0.094429737 3.6877017e-06 0)
(0.094429772 3.7234212e-06 -2.0216558e-20)
(0.094429801 3.7903652e-06 6.4166506e-19)
(0.094429824 3.9006507e-06 -6.5681924e-19)
(0.094429843 4.055692e-06 1.0341259e-20)
(0.094429856 4.2110334e-06 1.0420548e-20)
(0.094429864 4.3351613e-06 -3.2552239e-19)
(0.094429866 4.4241857e-06 3.3861633e-19)
(0.094429865 4.4724483e-06 0)
(0.094429856 4.4849864e-06 -8.5934268e-20)
(0.094429842 4.5064102e-06 7.5168548e-20)
(0.094429823 4.5721434e-06 0)
(0.094429797 4.667242e-06 0)
(0.094429765 4.7976341e-06 0)
(0.094429723 4.9940863e-06 1.1492845e-26)
(0.094429671 5.199212e-06 0)
(0.094429606 5.3184039e-06 0)
(0.094429526 5.334057e-06 0)
(0.094429429 5.3100582e-06 -1.3051581e-18)
(0.094429314 5.3193623e-06 1.2854963e-18)
(0.094429181 5.3636861e-06 1.2560727e-18)
(0.094429033 5.4488314e-06 -1.2764651e-18)
(0.094428875 5.5713463e-06 1.9643147e-20)
(0.094428716 5.7279854e-06 -1.949643e-20)
(0.094428566 5.9275812e-06 2.9024651e-20)
(0.094428437 6.1156203e-06 -2.4771749e-18)
(0.094428336 6.24286e-06 2.4391165e-18)
(0.094428267 6.3211574e-06 0)
(0.09442823 6.3672665e-06 -1.8758612e-20)
(0.094428216 6.3830005e-06 -1.8608439e-20)
(0.094428215 6.409312e-06 -2.3809285e-18)
(0.094428215 6.459832e-06 2.3428438e-18)
(0.094428208 6.5374784e-06 -2.3048177e-18)
(0.094428191 6.6566352e-06 4.5876306e-18)
(0.094428165 6.8029383e-06 -4.5647001e-18)
(0.094428135 6.9887364e-06 2.2792268e-18)
(0.094428105 7.2203569e-06 0)
(0.094428075 7.4658516e-06 1.7335141e-20)
(0.094428038 7.6718526e-06 0)
(0.094427985 7.828188e-06 2.1746765e-18)
(0.094427907 7.9396758e-06 -4.3039182e-18)
(0.094427808 8.0532357e-06 3.3262948e-20)
(0.094427708 8.1074863e-06 2.105285e-18)
(0.094427637 8.2675352e-06 -2.0813383e-18)
(0.094427615 8.290369e-06 2.0891382e-18)
(0.094427621 8.6459002e-06 9.8438619e-19)
(0.094427581 8.580983e-06 -1.0349664e-18)
(0.094427422 9.0718023e-06 0)
(0.094427161 8.9090491e-06 0)
(0.094426981 9.5273303e-06 0)
(0.094557601 1.7449642e-06 0)
(0.09447551 -5.6786901e-07 -1.0564789e-18)
(0.094448745 8.6198144e-07 1.0075535e-18)
(0.094441368 2.2254472e-07 9.489372e-19)
(0.09443985 7.3551072e-07 -3.071017e-18)
(0.094439802 6.6867e-07 2.0025417e-18)
(0.09444 9.4848041e-07 6.4118443e-20)
(0.094440133 1.0330915e-06 0)
(0.094440155 1.2369272e-06 3.280013e-20)
(0.0944401 1.3474535e-06 3.318468e-20)
(0.09444001 1.4544119e-06 0)
(0.094439893 1.5213934e-06 2.2051235e-18)
(0.094439736 1.588877e-06 3.4279758e-20)
(0.094439535 1.6649695e-06 5.8599945e-27)
(0.094439317 1.7528635e-06 -4.4228164e-18)
(0.094439132 1.8634336e-06 2.2587606e-18)
(0.094439028 2.0022571e-06 0)
(0.09443903 2.1611204e-06 1.7966996e-20)
(0.094439135 2.3198499e-06 1.8123032e-20)
(0.094439319 2.454412e-06 0)
(0.094439547 2.5396238e-06 0)
(0.094439788 2.5859025e-06 -1.8578075e-20)
(0.094440018 2.6208161e-06 2.3969964e-18)
(0.094440221 2.6651871e-06 -2.4158592e-18)
(0.094440392 2.7254825e-06 -1.9020508e-20)
(0.094440531 2.7992422e-06 -1.2266648e-18)
(0.094440643 2.8849271e-06 1.2553202e-18)
(0.094440732 2.9869143e-06 1.2453579e-18)
(0.094440803 3.117479e-06 -2.5192697e-18)
(0.094440861 3.2664842e-06 1.2641508e-18)
(0.094440908 3.3930895e-06 0)
(0.094440946 3.4597928e-06 2.0049536e-20)
(0.094440977 3.4766197e-06 1.3029011e-18)
(0.094441002 3.493439e-06 -1.2821754e-18)
(0.094441021 3.5400442e-06 2.0505609e-20)
(0.094441036 3.6174062e-06 0)
(0.094441046 3.7219951e-06 3.2268397e-19)
(0.094441052 3.8414554e-06 3.1610129e-28)
(0.094441053 3.9621335e-06 -4.9676055e-19)
(0.094441051 4.0756392e-06 1.7041507e-19)
(0.094441042 4.1737041e-06 8.5804348e-20)
(0.094441027 4.2248484e-06 -8.5749228e-20)
(0.094441007 4.2604354e-06 3.5106645e-19)
(0.09444098 4.3217055e-06 -6.7577698e-19)
(0.094440947 4.3911248e-06 3.3537848e-19)
(0.094440906 4.4739457e-06 1.0403057e-20)
(0.094440855 4.5874515e-06 0)
(0.094440792 4.6815414e-06 -1.3325775e-18)
(0.094440715 4.7119368e-06 1.3024703e-18)
(0.09444062 4.7335754e-06 0)
(0.094440507 4.7944401e-06 -1.2835098e-18)
(0.094440375 4.8915203e-06 2.5582146e-18)
(0.094440226 5.0154821e-06 -1.2647986e-18)
(0.094440066 5.1821875e-06 -1.2751166e-18)
(0.094439902 5.3562518e-06 1.2462159e-18)
(0.094439745 5.4794633e-06 -2.4931867e-18)
(0.094439606 5.546715e-06 4.9296733e-18)
(0.094439495 5.5714697e-06 -2.4365513e-18)
(0.094439417 5.5769191e-06 0)
(0.094439373 5.5952594e-06 1.8740316e-20)
(0.094439357 5.6509549e-06 2.3981706e-18)
(0.094439358 5.742535e-06 -2.378595e-18)
(0.094439365 5.8575897e-06 2.3404465e-18)
(0.094439366 6.0061893e-06 -2.3204074e-18)
(0.094439354 6.1868261e-06 0)
(0.094439329 6.3962383e-06 -2.2791772e-18)
(0.094439298 6.6001773e-06 2.257901e-18)
(0.094439264 6.7488391e-06 0)
(0.09443923 6.850786e-06 0)
(0.094439187 6.8973818e-06 0)
(0.094439125 6.9388335e-06 -2.2012878e-18)
(0.094439035 6.9753914e-06 4.3200011e-18)
(0.09443892 7.062553e-06 3.3099796e-20)
(0.094438799 7.1275261e-06 -2.1254739e-18)
(0.094438708 7.3269295e-06 0)
(0.094438674 7.3677329e-06 1.9753936e-18)
(0.094438685 7.7501348e-06 -2.9850122e-18)
(0.09443866 7.7367169e-06 6.1931526e-20)
(0.094438499 8.2540124e-06 9.7579187e-19)
(0.094438213 8.0619126e-06 0)
(0.094437998 8.8411112e-06 0)
(0.09455954 1.746649e-06 4.5419006e-19)
(0.094480673 -5.6200236e-07 -4.8785617e-19)
(0.094457158 8.2286509e-07 6.1944833e-20)
(0.094451047 1.92877e-07 1.0600072e-18)
(0.094449964 6.703075e-07 -1.0010922e-18)
(0.094450037 6.0296185e-07 0)
(0.094450253 8.407428e-07 -3.1847157e-20)
(0.09445037 8.993871e-07 0)
(0.094450374 1.0817111e-06 -2.0914404e-18)
(0.094450325 1.2186351e-06 2.084764e-18)
(0.094450267 1.3660622e-06 0)
(0.094450188 1.4740452e-06 -2.2016982e-18)
(0.094450048 1.5580895e-06 -3.424199e-20)
(0.094449834 1.6119593e-06 4.4287493e-18)
(0.094449583 1.658421e-06 -2.2715351e-18)
(0.094449369 1.718237e-06 3.5284045e-20)
(0.094449254 1.7947553e-06 2.2436008e-18)
(0.094449268 1.9023976e-06 -2.2997481e-18)
(0.094449398 2.0431108e-06 0)
(0.09444961 2.1888988e-06 0)
(0.094449858 2.3173771e-06 -1.8428971e-20)
(0.094450106 2.4243716e-06 1.8578083e-20)
(0.09445033 2.4981602e-06 -2.3781215e-18)
(0.09445052 2.5482422e-06 2.4155188e-18)
(0.094450673 2.5839672e-06 0)
(0.094450795 2.6165528e-06 1.2262559e-18)
(0.09445089 2.6631209e-06 -1.2354624e-18)
(0.094450966 2.7194996e-06 1.9447955e-20)
(0.094451027 2.7963447e-06 -1.9592147e-20)
(0.094451077 2.9124251e-06 0)
(0.094451119 3.0577368e-06 -1.9882696e-20)
(0.094451153 3.1828246e-06 -2.0029612e-20)
(0.094451182 3.2528011e-06 1.271208e-18)
(0.094451204 3.275748e-06 -1.3416364e-18)
(0.094451221 3.280466e-06 6.3486598e-19)
(0.094451234 3.3000712e-06 -6.6026333e-19)
(0.094451243 3.3500152e-06 0)
(0.094451247 3.4200776e-06 -2.0946904e-20)
(0.094451246 3.5112839e-06 1.7940985e-19)
(0.094451243 3.6317698e-06 -1.7015503e-19)
(0.094451235 3.7786378e-06 2.141188e-20)
(0.094451221 3.9161153e-06 -1.7113357e-19)
(0.094451202 4.0007769e-06 -1.8046631e-19)
(0.094451177 4.0342182e-06 3.3716933e-19)
(0.094451146 4.0380008e-06 0)
(0.094451106 4.0331179e-06 2.0762884e-20)
(0.094451057 4.0645324e-06 0)
(0.094450996 4.1256043e-06 1.8802132e-26)
(0.094450921 4.1910662e-06 2.0312097e-20)
(0.094450829 4.2845207e-06 0)
(0.094450718 4.4070883e-06 1.281244e-18)
(0.094450589 4.5543153e-06 -2.5439768e-18)
(0.094450441 4.6966045e-06 2.5452983e-18)
(0.094450281 4.8076641e-06 -1.2536118e-18)
(0.094450114 4.8762445e-06 1.944459e-20)
(0.094449951 4.8973794e-06 -2.4705736e-18)
(0.094449803 4.8956752e-06 -2.4469753e-27)
(0.094449681 4.9052855e-06 4.8673726e-18)
(0.094449592 4.9562697e-06 -2.4150382e-18)
(0.094449541 5.0423763e-06 2.3961893e-18)
(0.094449523 5.1591773e-06 -2.3585187e-18)
(0.09444953 5.3029079e-06 1.8419439e-20)
(0.094449546 5.4782172e-06 -2.3379293e-18)
(0.094449558 5.6573266e-06 2.3358688e-18)
(0.094449555 5.8075967e-06 -3.5892619e-20)
(0.094449535 5.9208504e-06 2.2759737e-18)
(0.094449503 5.9881473e-06 -2.2894595e-18)
(0.094449466 6.0228188e-06 2.2318547e-18)
(0.094449425 6.0375375e-06 -4.4175546e-18)
(0.094449374 6.0593649e-06 2.184922e-18)
(0.094449302 6.1204612e-06 2.1602334e-18)
(0.0944492 6.2012246e-06 -4.2692741e-18)
(0.094449071 6.3622232e-06 2.1080531e-18)
(0.094448931 6.4512732e-06 3.2506202e-20)
(0.094448821 6.6893719e-06 0)
(0.094448775 6.7238448e-06 6.3171047e-20)
(0.094448794 7.0509234e-06 9.3279464e-19)
(0.094448789 7.0308121e-06 -1.0395951e-18)
(0.094448634 7.511289e-06 -1.0210898e-18)
(0.094448324 7.2865827e-06 1.3549934e-18)
(0.094448073 8.1682817e-06 -4.5187732e-19)
(0.094560984 1.686989e-06 1.1129358e-19)
(0.094485369 -5.3244841e-07 -1.1969496e-19)
(0.094464879 7.6700289e-07 -6.0934516e-20)
(0.094459904 1.759352e-07 -6.1460738e-20)
(0.094459183 6.0923121e-07 0)
(0.094459349 5.4252807e-07 -1.9983696e-18)
(0.094459572 7.3960702e-07 1.9617808e-18)
(0.094459667 7.7369091e-07 0)
(0.09445965 9.2153593e-07 0)
(0.09445961 1.0357777e-06 0)
(0.094459597 1.1794859e-06 0)
(0.094459572 1.3114465e-06 2.1305773e-18)
(0.094459462 1.4364304e-06 4.7029318e-27)
(0.09445924 1.5286081e-06 -2.2126493e-18)
(0.094458959 1.5900253e-06 0)
(0.094458717 1.627654e-06 -7.0546403e-20)
(0.094458593 1.6646314e-06 7.121331e-20)
(0.094458617 1.7210366e-06 -1.796526e-20)
(0.094458768 1.8000178e-06 0)
(0.094458997 1.9008302e-06 -2.339441e-18)
(0.094459253 2.0228461e-06 2.3771649e-18)
(0.094459498 2.1455797e-06 0)
(0.094459711 2.2562056e-06 -1.8721518e-20)
(0.094459884 2.3483297e-06 0)
(0.094460021 2.4163754e-06 -2.452075e-18)
(0.094460127 2.4668449e-06 2.4512264e-18)
(0.094460209 2.4998339e-06 -1.2346623e-18)
(0.094460275 2.5227871e-06 -3.8865798e-20)
(0.094460329 2.5495317e-06 1.2527656e-18)
(0.094460373 2.6046317e-06 -1.9716636e-20)
(0.094460411 2.7057933e-06 -1.2511645e-18)
(0.094460443 2.8304693e-06 1.2602581e-18)
(0.09446047 2.9393006e-06 1.2895961e-18)
(0.094460492 3.0126568e-06 -1.2787446e-18)
(0.094460508 3.0504913e-06 0)
(0.09446052 3.0610611e-06 -6.3856247e-19)
(0.094460527 3.0822431e-06 6.6408907e-19)
(0.094460531 3.1325213e-06 3.5545616e-19)
(0.09446053 3.1977158e-06 -5.2670132e-19)
(0.094460525 3.2862415e-06 8.4917649e-20)
(0.094460519 3.3822462e-06 6.40968e-20)
(0.094460506 3.4887416e-06 0)
(0.094460489 3.5816033e-06 3.3887172e-19)
(0.094460467 3.6194485e-06 -3.3634994e-19)
(0.094460438 3.6292562e-06 -6.8859989e-19)
(0.0944604 3.635151e-06 1.3049693e-18)
(0.094460353 3.6630558e-06 -6.3745788e-19)
(0.094460295 3.7204686e-06 2.0414608e-20)
(0.094460222 3.8055216e-06 -1.3174155e-18)
(0.094460134 3.9315246e-06 1.2878686e-18)
(0.094460027 4.0760419e-06 1.2986604e-18)
(0.094459901 4.2021161e-06 -2.5192981e-18)
(0.094459757 4.277604e-06 1.2408128e-18)
(0.094459597 4.2955173e-06 -1.9554412e-20)
(0.094459428 4.2869304e-06 0)
(0.094459259 4.2915036e-06 -1.9272518e-20)
(0.094459101 4.3331663e-06 1.9130881e-20)
(0.094458966 4.4052232e-06 -2.4304965e-18)
(0.094458866 4.5106002e-06 -1.8844178e-20)
(0.094458808 4.6472932e-06 2.3933734e-18)
(0.09445879 4.8001394e-06 -3.7099864e-20)
(0.094458803 4.9496638e-06 1.8398795e-20)
(0.094458832 5.0618181e-06 0)
(0.094458857 5.1443222e-06 -5.4258056e-20)
(0.094458864 5.192734e-06 7.1693225e-20)
(0.094458846 5.218936e-06 -3.5511254e-20)
(0.094458809 5.2390217e-06 3.5164821e-20)
(0.094458763 5.2622965e-06 -2.2623866e-18)
(0.094458714 5.3161568e-06 2.2037489e-18)
(0.094458656 5.3935741e-06 -2.2129939e-18)
(0.094458578 5.5362886e-06 2.1867369e-18)
(0.094458469 5.6615513e-06 -3.3220117e-20)
(0.094458333 5.8722469e-06 -2.1305878e-18)
(0.094458182 5.961798e-06 2.0358274e-18)
(0.094458057 6.1729303e-06 0)
(0.094458001 6.1763372e-06 -6.2626681e-20)
(0.09445803 6.4335978e-06 1.2308041e-19)
(0.094458052 6.4010794e-06 0)
(0.09445791 6.8271298e-06 5.9162032e-20)
(0.094457576 6.5853449e-06 5.7851563e-20)
(0.094457287 7.5070798e-06 -1.1065439e-19)
(0.09456192 1.5744119e-06 -1.0910166e-19)
(0.094489605 -4.8996075e-07 1.174824e-19)
(0.094471973 6.9340419e-07 -1.1988224e-19)
(0.094468002 1.7144685e-07 0)
(0.094467578 5.5209752e-07 6.1131445e-20)
(0.09446781 4.9865882e-07 1.9193363e-18)
(0.094468034 6.6912128e-07 -3.9615063e-18)
(0.094468103 7.0669993e-07 -6.4111468e-27)
(0.09446806 8.2725213e-07 2.011096e-18)
(0.094468029 8.9955841e-07 2.1058286e-18)
(0.094468067 1.0118356e-06 -2.1340875e-18)
(0.094468106 1.1254262e-06 6.7528309e-20)
(0.094468032 1.2484765e-06 3.4163252e-20)
(0.094467809 1.3680002e-06 2.2453882e-18)
(0.094467506 1.4758847e-06 -2.2342209e-18)
(0.094467244 1.5503625e-06 3.5260488e-20)
(0.094467119 1.5891886e-06 -2.2782932e-18)
(0.094467156 1.616573e-06 2.2991819e-18)
(0.094467322 1.655089e-06 0)
(0.094467557 1.7060489e-06 -1.8274197e-20)
(0.094467808 1.7759358e-06 0)
(0.094468038 1.8639642e-06 -1.8570799e-20)
(0.094468231 1.9643268e-06 1.8714844e-20)
(0.094468384 2.0650732e-06 0)
(0.094468504 2.1584959e-06 1.4385082e-26)
(0.094468597 2.237585e-06 -1.2247269e-18)
(0.09446867 2.298782e-06 -1.9274947e-20)
(0.094468729 2.3400649e-06 1.2618674e-18)
(0.094468777 2.3535951e-06 1.4824641e-26)
(0.094468818 2.3664684e-06 1.9691168e-20)
(0.094468853 2.4095825e-06 1.9831325e-20)
(0.094468883 2.485492e-06 -1.2582871e-18)
(0.094468908 2.5862274e-06 1.3075333e-18)
(0.094468929 2.6903993e-06 0)
(0.094468946 2.7804107e-06 -6.3264777e-19)
(0.094468958 2.8485638e-06 1.2951199e-18)
(0.094468966 2.8985996e-06 -1.0147631e-18)
(0.09446897 2.9478844e-06 3.1296158e-19)
(0.09446897 2.9968794e-06 0)
(0.094468966 3.0477189e-06 0)
(0.094468961 3.0836125e-06 0)
(0.09446895 3.1132671e-06 0)
(0.094468935 3.151411e-06 2.1120725e-20)
(0.094468914 3.2008012e-06 3.3542275e-19)
(0.094468887 3.2543155e-06 -9.7806195e-19)
(0.094468853 3.3032604e-06 6.404094e-19)
(0.094468808 3.3596667e-06 -6.9731939e-19)
(0.094468752 3.4228294e-06 1.9548227e-18)
(0.094468683 3.51424e-06 2.021817e-20)
(0.094468598 3.621667e-06 -1.28483e-18)
(0.094468496 3.7098949e-06 -1.9934338e-20)
(0.094468374 3.7596573e-06 -1.9794459e-20)
(0.094468233 3.7711923e-06 0)
(0.094468075 3.770313e-06 1.9517074e-20)
(0.094467904 3.7880987e-06 1.9378789e-20)
(0.094467728 3.8413917e-06 1.9240265e-20)
(0.09446756 3.9306827e-06 -1.9101009e-20)
(0.094467413 4.0460932e-06 0)
(0.094467302 4.1777262e-06 1.8818442e-20)
(0.094467236 4.3060341e-06 0)
(0.094467218 4.3982233e-06 1.852705e-20)
(0.094467239 4.4608945e-06 -1.8376669e-20)
(0.09446728 4.4992068e-06 -2.3689087e-18)
(0.094467318 4.5185818e-06 2.3482628e-18)
(0.094467331 4.5379163e-06 -3.5799149e-20)
(0.09446731 4.5670579e-06 3.5459449e-20)
(0.094467263 4.6128277e-06 0)
(0.094467205 4.6837257e-06 3.4738939e-20)
(0.094467148 4.7921177e-06 2.1987262e-18)
(0.094467088 4.8959387e-06 -4.3459971e-18)
(0.094467011 5.0616407e-06 2.1459997e-18)
(0.094466904 5.1566809e-06 0)
(0.094466768 5.3270921e-06 -2.0876508e-18)
(0.094466612 5.3711684e-06 1.9917501e-18)
(0.094466474 5.5605025e-06 -6.3202132e-20)
(0.094466408 5.5910137e-06 6.2089184e-20)
(0.094466446 5.8199714e-06 -6.0903771e-20)
(0.094466501 5.8036088e-06 -1.0138357e-18)
(0.094466379 6.1941595e-06 1.7484051e-18)
(0.094466022 5.9518626e-06 -9.091168e-19)
(0.094465689 6.8648029e-06 1.0840958e-19)
(0.09456232 1.4209161e-06 4.2788168e-19)
(0.094493435 -4.3522415e-07 -5.7661858e-19)
(0.094478465 6.1115706e-07 -8.255095e-19)
(0.094475375 1.6754837e-07 -9.5568996e-19)
(0.094475192 4.9527526e-07 3.8685364e-18)
(0.094475471 4.6425501e-07 6.1396134e-20)
(0.094475692 6.1413243e-07 -2.0620767e-18)
(0.094475731 6.6282759e-07 0)
(0.094475655 7.7336193e-07 -1.9389571e-18)
(0.09447563 8.2400908e-07 2.0997476e-18)
(0.094475722 9.0803408e-07 2.129389e-18)
(0.094475825 9.8126597e-07 -4.382119e-18)
(0.09447579 1.0752817e-06 2.1497e-18)
(0.094475571 1.1832251e-06 -2.2434654e-18)
(0.094475259 1.2990394e-06 2.1979923e-18)
(0.094474995 1.4035891e-06 0)
(0.094474882 1.4887995e-06 -3.5587565e-20)
(0.094474936 1.5469955e-06 2.2986242e-18)
(0.094475111 1.5719627e-06 -4.6377792e-18)
(0.094475342 1.5921325e-06 2.3567659e-18)
(0.094475575 1.6250238e-06 2.3759551e-18)
(0.09447578 1.6688863e-06 1.8563281e-20)
(0.094475948 1.7255121e-06 -2.431675e-18)
(0.09447608 1.7969732e-06 -1.8844639e-20)
(0.094476183 1.8772874e-06 -2.4297229e-18)
(0.094476264 1.9602214e-06 1.2235809e-18)
(0.094476329 2.0440803e-06 1.2322489e-18)
(0.094476383 2.1171016e-06 0)
(0.094476428 2.1666559e-06 1.3394938e-26)
(0.094476467 2.1809842e-06 0)
(0.0944765 2.1892483e-06 -1.9797106e-20)
(0.094476529 2.2200513e-06 -1.2958e-18)
(0.094476554 2.2780839e-06 -2.0075396e-20)
(0.094476574 2.3592906e-06 1.2737006e-18)
(0.094476591 2.453272e-06 -2.0361868e-20)
(0.094476603 2.555115e-06 6.5628248e-19)
(0.094476612 2.6422232e-06 -6.4041555e-19)
(0.094476618 2.7032268e-06 -3.1216872e-19)
(0.09447662 2.7468417e-06 3.3547169e-19)
(0.094476618 2.7747326e-06 -2.1125834e-20)
(0.094476614 2.7862198e-06 8.5000813e-20)
(0.094476606 2.8070315e-06 -8.4854655e-20)
(0.094476593 2.8411589e-06 -2.1054717e-20)
(0.094476575 2.8995484e-06 3.3438211e-19)
(0.094476551 2.9722617e-06 -3.3193765e-19)
(0.094476519 3.0510743e-06 -6.1788805e-19)
(0.094476478 3.1316779e-06 1.3291982e-18)
(0.094476425 3.1983247e-06 6.4975064e-19)
(0.09447636 3.2528704e-06 -1.3307268e-18)
(0.09447628 3.2822268e-06 -2.0022385e-20)
(0.094476182 3.2979893e-06 0)
(0.094476065 3.3025762e-06 0)
(0.094475927 3.3083282e-06 -1.2747064e-18)
(0.094475769 3.3441306e-06 1.2269495e-18)
(0.094475597 3.4187026e-06 -1.3336064e-26)
(0.094475416 3.5185214e-06 0)
(0.09447524 3.6349604e-06 0)
(0.094475082 3.7492529e-06 -2.4230311e-18)
(0.094474961 3.8295269e-06 2.4051318e-18)
(0.094474887 3.8823966e-06 0)
(0.094474867 3.9130522e-06 1.8502208e-20)
(0.094474894 3.9252749e-06 2.3491702e-18)
(0.094474945 3.9415523e-06 7.2796303e-20)
(0.094474993 3.9657467e-06 -2.3452054e-18)
(0.094475009 4.006028e-06 3.5750047e-20)
(0.094474983 4.0680963e-06 0)
(0.094474925 4.1498354e-06 0)
(0.094474856 4.2419879e-06 0)
(0.094474795 4.3641488e-06 -3.4276628e-20)
(0.094474739 4.4519198e-06 2.3380825e-26)
(0.09447467 4.590269e-06 -2.1389435e-18)
(0.094474571 4.6372214e-06 2.0762121e-18)
(0.094474439 4.7687381e-06 6.4924074e-20)
(0.094474281 4.795562e-06 6.3873962e-20)
(0.09447413 4.9661551e-06 -1.8826337e-18)
(0.094474049 5.0078172e-06 1.9698622e-18)
(0.094474092 5.2214992e-06 9.0415089e-19)
(0.094474186 5.2315835e-06 -1.825912e-18)
(0.09447409 5.594421e-06 1.1483626e-18)
(0.094473711 5.3684286e-06 -1.1163336e-19)
(0.094473326 6.2391039e-06 1.0623291e-19)
(0.09456218 1.2343175e-06 0)
(0.094496909 -3.7439508e-07 1.1321689e-19)
(0.094484393 5.1808342e-07 1.1601266e-19)