/*--------------------------------*- C++ -*----------------------------------*\
| =========                 |                                                 |
| \\      /  F ield         | OpenFOAM: The Open Source CFD Toolbox           |
|  \\    /   O peration     | Version:  v2006                                 |
|   \\  /    A nd           | Website:  www.openfoam.com                      |
|    \\/     M anipulation  |                                                 |
\*---------------------------------------------------------------------------*/
FoamFile
{
    version     2.0;
    format      ascii;
    class       volVectorField;
    location    "10000";
    object      UMean;
}
// * * * * * * * * * * * * * * * * * * * * * * * * * * * * * * * * * * * * * //

dimensions      [0 1 -1 0 0 0 0];


internalField   nonuniform List<vector> 
102907
(
(0.09454152 7.9591159e-07 5.0301626e-19)
(0.094439518 -3.8673793e-07 -5.3693557e-19)
(0.094397619 7.1168966e-07 -1.6814057e-20)
(0.094382398 3.8556562e-07 -1.0726975e-18)
(0.094377682 9.0839519e-07 1.0644488e-18)
(0.094376508 9.1779877e-07 2.1146128e-18)
(0.094376344 1.2725535e-06 -4.2304755e-18)
(0.094376387 1.3529303e-06 2.1180101e-18)
(0.094376399 1.615584e-06 8.3255115e-21)
(0.094376336 1.7635961e-06 0)
(0.094376218 1.9549869e-06 0)
(0.094376089 2.1250499e-06 -2.1842925e-18)
(0.094375979 2.2981331e-06 2.2116788e-18)
(0.094375902 2.4642676e-06 -2.213307e-18)
(0.094375847 2.628196e-06 2.2410107e-18)
(0.094375795 2.7881416e-06 0)
(0.094375726 2.9451628e-06 -2.2836906e-18)
(0.094375631 3.0990125e-06 4.5923312e-18)
(0.094375518 3.2499511e-06 3.5666949e-28)
(0.094375406 3.3982216e-06 -2.3367995e-18)
(0.094375321 3.5438763e-06 0)
(0.094375281 3.6870234e-06 -2.3705793e-18)
(0.094375295 3.8277736e-06 4.7888908e-18)
(0.09437536 3.9663352e-06 1.8615199e-28)
(0.094375464 4.1029972e-06 -2.4377266e-18)
(0.094375588 4.2382379e-06 -4.7896447e-21)
(0.094375716 4.3723043e-06 0)
(0.094375836 4.505167e-06 -1.2455692e-18)
(0.094375941 4.6370854e-06 1.25534e-18)
(0.094376029 4.7678207e-06 0)
(0.094376101 4.8973622e-06 1.2800196e-18)
(0.094376161 5.0258817e-06 -1.2899993e-18)
(0.09437621 5.1529401e-06 -1.2949891e-18)
(0.094376252 5.2786332e-06 1.3101693e-18)
(0.094376288 5.4033012e-06 -5.137613e-21)
(0.09437632 5.5273669e-06 0)
(0.094376349 5.6512305e-06 -3.3394558e-19)
(0.094376374 5.7748429e-06 3.418024e-19)
(0.094376395 5.8977297e-06 0)
(0.09437641 6.019721e-06 5.3405422e-21)
(0.094376418 6.1414347e-06 -9.1492772e-20)
(0.094376418 6.2628462e-06 9.1583212e-20)
(0.094376407 6.3839608e-06 -3.4251604e-19)
(0.094376387 6.5050659e-06 5.3120227e-21)
(0.094376358 6.6263923e-06 3.4271098e-19)
(0.09437632 6.7481559e-06 6.6984652e-19)
(0.094376271 6.8702033e-06 -1.3348911e-18)
(0.094376211 6.9924749e-06 -6.6503787e-19)
(0.094376136 7.1156871e-06 1.3098952e-18)
(0.094376045 7.240438e-06 1.3000838e-18)
(0.094375938 7.3665089e-06 -1.2903261e-18)
(0.094375816 7.493728e-06 0)
(0.094375685 7.6217877e-06 0)
(0.094375551 7.7508164e-06 0)
(0.094375426 7.881461e-06 -4.8894942e-21)
(0.094375324 8.0140451e-06 0)
(0.094375255 8.1485655e-06 2.4602969e-18)
(0.09437523 8.2850305e-06 -2.45076e-18)
(0.094375253 8.4235232e-06 4.7399467e-21)
(0.09437532 8.5641653e-06 -4.7025685e-21)
(0.094375421 8.707081e-06 0)
(0.094375544 8.8524096e-06 0)
(0.094375673 9.0001533e-06 2.3501833e-18)
(0.094375797 9.1504794e-06 -2.3264084e-18)
(0.094375909 9.3037137e-06 0)
(0.094376009 9.4601303e-06 0)
(0.094376096 9.6205741e-06 -2.2821822e-18)
(0.094376173 9.7849935e-06 8.6297547e-28)
(0.094376238 9.9542382e-06 2.2438703e-18)
(0.09437629 1.0127057e-05 0)
(0.094376325 1.0306514e-05 -8.5846094e-21)
(0.094376347 1.048669e-05 0)
(0.094376364 1.0680437e-05 -8.4437406e-21)
(0.094376395 1.086338e-05 0)
(0.094376455 1.1080457e-05 8.3128945e-21)
(0.094376542 1.1260718e-05 -2.1128564e-18)
(0.094376628 1.1507611e-05 2.099021e-18)
(0.094376653 1.1693595e-05 -1.6304771e-20)
(0.094376589 1.1957401e-05 0)
(0.094376448 1.2171849e-05 5.1769793e-19)
(0.094376329 1.2396507e-05 -5.0258346e-19)
(0.094545327 1.257109e-06 5.2356304e-19)
(0.094447806 -4.2720776e-07 -5.2661563e-19)
(0.09440943 8.7029754e-07 4.9620157e-20)
(0.094396353 3.3438357e-07 3.303978e-20)
(0.094392614 8.9397085e-07 2.1352031e-18)
(0.094391796 8.460029e-07 -2.0934879e-18)
(0.094391742 1.1747127e-06 8.1853296e-21)
(0.094391801 1.2547708e-06 -2.1066931e-18)
(0.094391797 1.4980887e-06 2.1148312e-18)
(0.094391708 1.637982e-06 -1.6733077e-20)
(0.094391571 1.8238495e-06 2.1613683e-18)
(0.094391432 1.9785901e-06 2.4845563e-27)
(0.094391322 2.1399374e-06 -2.2094996e-18)
(0.09439125 2.2916668e-06 -8.6743495e-21)
(0.094391198 2.441542e-06 0)
(0.094391142 2.5870145e-06 2.2687727e-18)
(0.094391062 2.7294963e-06 -2.2839571e-18)
(0.094390951 2.8688268e-06 1.3470688e-20)
(0.094390821 3.0053494e-06 2.3274791e-18)
(0.094390696 3.1393163e-06 -2.3286488e-18)
(0.094390602 3.2710609e-06 0)
(0.09439056 3.4009328e-06 -2.3902582e-18)
(0.094390575 3.5290285e-06 2.3955551e-18)
(0.094390641 3.6552649e-06 0)
(0.094390743 3.7795939e-06 4.7538364e-21)
(0.094390861 3.9018811e-06 4.7913813e-21)
(0.094390979 4.0222392e-06 0)
(0.094391086 4.1409846e-06 1.245883e-18)
(0.094391177 4.2585888e-06 7.0580833e-28)
(0.09439125 4.3750352e-06 -1.2752121e-18)
(0.094391309 4.4905121e-06 -4.9809752e-21)
(0.094391355 4.6052851e-06 -1.2799757e-18)
(0.094391393 4.7191311e-06 1.2949332e-18)
(0.094391424 4.8323866e-06 6.5757194e-19)
(0.094391452 4.9450032e-06 -6.5238676e-19)
(0.094391476 5.0571953e-06 1.0353366e-20)
(0.094391497 5.1692111e-06 3.3909282e-19)
(0.094391515 5.2809404e-06 -6.7818937e-19)
(0.094391529 5.3921128e-06 3.3377941e-19)
(0.094391538 5.5024358e-06 -5.3392102e-21)
(0.094391541 5.6130866e-06 5.3806005e-21)
(0.094391534 5.7241785e-06 -5.383527e-21)
(0.094391519 5.8352208e-06 0)
(0.094391494 5.946299e-06 -3.4488188e-19)
(0.094391461 6.0574972e-06 -3.4757926e-19)
(0.09439142 6.1689176e-06 6.6907196e-19)
(0.094391369 6.2799112e-06 5.1881954e-21)
(0.094391307 6.3901533e-06 5.1495491e-21)
(0.094391232 6.5016178e-06 0)
(0.094391141 6.6160812e-06 1.0146095e-20)
(0.094391034 6.7328454e-06 -1.2890004e-18)
(0.094390912 6.8508602e-06 1.2793508e-18)
(0.094390779 6.9688526e-06 -1.2598239e-18)
(0.094390642 7.0866867e-06 1.2601704e-18)
(0.094390511 7.205365e-06 -1.2457362e-18)
(0.094390399 7.3258799e-06 1.2410867e-18)
(0.09439032 7.4487284e-06 2.4679243e-18)
(0.094390285 7.5736789e-06 -2.4392697e-18)
(0.094390298 7.7004958e-06 2.410735e-18)
(0.094390357 7.8290945e-06 -2.391701e-18)
(0.094390454 7.9598522e-06 0)
(0.094390573 8.0934296e-06 9.2472744e-21)
(0.094390699 8.2297536e-06 -2.3479316e-18)
(0.09439082 8.3689951e-06 2.3239157e-18)
(0.094390927 8.5113541e-06 -2.3088978e-18)
(0.09439102 8.6566151e-06 2.280293e-18)
(0.094391099 8.8060128e-06 8.8651761e-21)
(0.094391166 8.9581684e-06 2.2496523e-18)
(0.094391223 9.1155366e-06 -2.2210725e-18)
(0.094391265 9.2744082e-06 2.209885e-18)
(0.09439129 9.4432478e-06 8.5547832e-21)
(0.094391298 9.606887e-06 -4.3574639e-18)
(0.094391297 9.7964539e-06 2.5203016e-20)
(0.094391304 9.9544423e-06 2.1313387e-18)
(0.094391341 1.0184354e-05 -2.4755007e-20)
(0.094391413 1.0322407e-05 1.6360063e-20)
(0.094391493 1.0606992e-05 0)
(0.094391513 1.0735995e-05 1.6093979e-20)
(0.094391431 1.1042787e-05 0)
(0.094391252 1.1215114e-05 0)
(0.094391104 1.1506025e-05 0)
(0.094548779 1.5342593e-06 -5.1292531e-19)
(0.09445539 -5.0215482e-07 5.1655715e-19)
(0.094420362 8.987864e-07 9.7623818e-19)
(0.094409213 2.9308408e-07 -1.0420821e-18)
(0.094406277 8.4599448e-07 -3.2444945e-20)
(0.094405736 7.8188034e-07 0)
(0.094405762 1.0865548e-06 3.2507074e-20)
(0.094405827 1.1601956e-06 -2.0957761e-18)
(0.094405804 1.3826593e-06 -4.2536088e-27)
(0.094405691 1.5108907e-06 2.1525458e-18)
(0.094405537 1.6803286e-06 0)
(0.094405394 1.8215642e-06 2.1779069e-18)
(0.094405291 1.967909e-06 -2.1986697e-18)
(0.094405228 2.1057469e-06 0)
(0.094405182 2.241416e-06 0)
(0.094405124 2.3731454e-06 2.2508593e-18)
(0.094405034 2.501998e-06 -2.2707429e-18)
(0.094404909 2.6278975e-06 -2.6946543e-20)
(0.094404765 2.7512555e-06 2.310013e-18)
(0.09440463 2.8722329e-06 -2.3476959e-18)
(0.094404534 2.9912213e-06 -1.8421287e-20)
(0.094404495 3.108555e-06 9.2858956e-21)
(0.094404517 3.2242562e-06 0)
(0.094404588 3.338246e-06 0)
(0.094404691 3.4505728e-06 -2.4345865e-18)
(0.094404806 3.5611855e-06 2.4536724e-18)
(0.094404916 3.6701234e-06 -9.6592803e-21)
(0.094405011 3.7777388e-06 1.2459625e-18)
(0.094405089 3.8840802e-06 -1.2653795e-18)
(0.09440515 3.98934e-06 9.8845664e-21)
(0.094405196 4.0938803e-06 0)
(0.094405231 4.1977457e-06 0)
(0.094405259 4.3011489e-06 1.0113743e-20)
(0.094405282 4.4040269e-06 -6.5224701e-19)
(0.094405301 4.5065189e-06 6.5725888e-19)
(0.094405318 4.6082167e-06 -6.8301548e-19)
(0.094405333 4.7090204e-06 6.6221184e-19)
(0.094405345 4.809793e-06 -1.0509113e-20)
(0.094405354 4.9117363e-06 -1.641523e-19)
(0.094405358 5.0149086e-06 1.7076096e-19)
(0.094405356 5.117231e-06 8.603895e-20)
(0.094405345 5.2175192e-06 9.6807429e-20)
(0.094405326 5.3163772e-06 -1.7082924e-19)
(0.094405298 5.4152623e-06 3.3911124e-19)
(0.094405263 5.5147949e-06 -1.0044983e-18)
(0.094405221 5.6156293e-06 6.5772481e-19)
(0.09440517 5.71871e-06 -6.6320158e-19)
(0.094405109 5.8234597e-06 -6.5828001e-19)
(0.094405035 5.9281082e-06 1.3067952e-18)
(0.094404946 6.0316894e-06 -1.2971021e-18)
(0.094404841 6.1340554e-06 -1.0387717e-27)
(0.094404721 6.236528e-06 2.5657782e-18)
(0.094404587 6.3415776e-06 -1.268366e-18)
(0.094404447 6.4507554e-06 0)
(0.094404311 6.5615085e-06 0)
(0.094404191 6.6723334e-06 -9.686878e-21)
(0.094404102 6.7841328e-06 0)
(0.094404056 6.8972146e-06 0)
(0.094404058 7.0121991e-06 9.4643715e-21)
(0.094404109 7.1286844e-06 -9.3896705e-21)
(0.0944042 7.2470522e-06 0)
(0.094404316 7.3679964e-06 9.2388869e-21)
(0.09440444 7.4916788e-06 0)
(0.094404559 7.6185355e-06 -1.8171527e-20)
(0.094404662 7.7486831e-06 -2.2880667e-18)
(0.094404749 7.881587e-06 8.9297263e-21)
(0.09440482 8.0189627e-06 2.248025e-18)
(0.09440488 8.1579737e-06 0)
(0.094404929 8.3039381e-06 -3.4758197e-20)
(0.094404964 8.4485345e-06 2.2036107e-18)
(0.094404982 8.6072388e-06 -2.1825159e-18)
(0.09440498 8.7513173e-06 -2.1443783e-18)
(0.094404963 8.9360932e-06 2.0897337e-18)
(0.094404951 9.0615354e-06 3.3100624e-20)
(0.094404968 9.3054409e-06 -2.0806082e-18)
(0.094405027 9.3730511e-06 -4.8647335e-20)
(0.094405104 9.7108769e-06 1.0272182e-18)
(0.094405127 9.7163622e-06 1.0485616e-18)
(0.094405031 1.0127875e-05 0)
(0.09440482 1.0125357e-05 -4.9837863e-19)
(0.094404645 1.055183e-05 4.8143238e-19)
(0.094551674 1.6950219e-06 0)
(0.094462096 -5.4836413e-07 6.334419e-20)
(0.09443036 8.9786796e-07 1.0563534e-18)
(0.094420998 2.5531721e-07 -9.9497592e-19)
(0.094418739 7.9484732e-07 2.0831728e-18)
(0.094418421 7.2155928e-07 -2.021406e-18)
(0.094418505 1.0037677e-06 -6.4561008e-20)
(0.09441857 1.0711721e-06 0)
(0.094418524 1.2749984e-06 -3.2924528e-20)
(0.094418388 1.3922127e-06 -2.1299063e-18)
(0.094418221 1.5466873e-06 4.3049561e-18)
(0.094418079 1.6753891e-06 -2.1746408e-18)
(0.094417987 1.8083801e-06 0)
(0.094417937 1.9336144e-06 -2.2177042e-18)
(0.094417899 2.0567373e-06 2.2211909e-18)
(0.094417839 2.1761764e-06 -2.2593235e-18)
(0.094417739 2.2929362e-06 -4.0080139e-27)
(0.0944176 2.4069007e-06 4.6174231e-18)
(0.094417444 2.5185427e-06 -2.3376632e-18)
(0.094417304 2.6279613e-06 0)
(0.09441721 2.7355831e-06 1.8426026e-20)
(0.09441718 2.8416297e-06 0)
(0.094417211 2.9460761e-06 0)
(0.094417291 3.0489019e-06 0)
(0.094417397 3.1501144e-06 1.9022086e-20)
(0.094417509 3.2496944e-06 -1.2268701e-18)
(0.094417612 3.3477765e-06 -9.6587788e-21)
(0.094417697 3.4446501e-06 1.2457954e-18)
(0.094417764 3.5402908e-06 1.9613981e-20)
(0.094417813 3.6350812e-06 -1.2648375e-18)
(0.094417848 3.7293075e-06 1.2744366e-18)
(0.094417874 3.8229207e-06 0)
(0.094417893 3.9160519e-06 -2.0216431e-20)
(0.094417908 4.0086907e-06 6.4165896e-19)
(0.094417921 4.100857e-06 -6.5681095e-19)
(0.094417933 4.1922128e-06 1.0341097e-20)
(0.094417943 4.2830171e-06 1.0420353e-20)
(0.094417951 4.3740143e-06 -3.255153e-19)
(0.094417956 4.4658969e-06 3.3860794e-19)
(0.094417957 4.5586746e-06 0)
(0.094417951 4.6508882e-06 -8.5939262e-20)
(0.094417938 4.7416074e-06 7.5180054e-20)
(0.094417915 4.8308424e-06 0)
(0.094417885 4.9195936e-06 0)
(0.094417849 5.0086992e-06 0)
(0.094417806 5.0989696e-06 1.1689181e-26)
(0.094417756 5.1925207e-06 0)
(0.094417696 5.2891294e-06 0)
(0.094417625 5.3856172e-06 0)
(0.09441754 5.4795133e-06 -1.3053842e-18)
(0.094417439 5.5701329e-06 1.2857215e-18)
(0.094417321 5.6607356e-06 1.2562951e-18)
(0.094417189 5.7550462e-06 -1.2766937e-18)
(0.094417048 5.8538038e-06 1.9646705e-20)
(0.094416907 5.9549887e-06 -1.9500002e-20)
(0.09441678 6.0569112e-06 2.9030026e-20)
(0.094416681 6.159502e-06 -2.4776384e-18)
(0.094416623 6.2625207e-06 2.4395772e-18)
(0.094416614 6.3673545e-06 0)
(0.094416656 6.4746124e-06 -1.8762218e-20)
(0.09441674 6.5846649e-06 -1.8612047e-20)
(0.094416853 6.6970594e-06 -2.381394e-18)
(0.094416977 6.8111648e-06 2.3433057e-18)
(0.094417095 6.9270963e-06 -2.305276e-18)
(0.094417196 7.0450687e-06 4.5885507e-18)
(0.094417278 7.1643979e-06 -4.5656237e-18)
(0.094417344 7.2873434e-06 2.2796922e-18)
(0.094417397 7.4109142e-06 0)
(0.09441744 7.543286e-06 1.7338743e-20)
(0.09441747 7.6717696e-06 0)
(0.094417483 7.8207835e-06 2.175135e-18)
(0.094417474 7.9467621e-06 -4.3048317e-18)
(0.094417446 8.1260528e-06 3.3270049e-20)
(0.094417416 8.2276983e-06 2.1057373e-18)
(0.094417413 8.4683593e-06 -2.0817884e-18)
(0.094417459 8.5079761e-06 2.0895927e-18)
(0.094417536 8.8539384e-06 9.8460158e-19)
(0.094417567 8.8138313e-06 -1.0351942e-18)
(0.094417461 9.2785164e-06 0)
(0.094417223 9.1563097e-06 0)
(0.094417013 9.7890652e-06 0)
(0.094554074 1.7670295e-06 0)
(0.094468029 -5.6853007e-07 -1.0565508e-18)
(0.094439615 8.7379556e-07 1.0076358e-18)
(0.094431825 2.2531568e-07 9.490156e-19)
(0.094430129 7.3923254e-07 -3.0712637e-18)
(0.094429987 6.6505071e-07 2.0026959e-18)
(0.094430113 9.2419674e-07 6.4123148e-20)
(0.09443017 9.8695262e-07 0)
(0.0944301 1.1725232e-06 3.2802316e-20)
(0.094429941 1.280513e-06 3.3186796e-20)
(0.094429765 1.4208202e-06 0)
(0.09442963 1.538225e-06 2.2052516e-18)
(0.094429554 1.6590175e-06 3.4281616e-20)
(0.094429519 1.7726866e-06 4.9190123e-27)
(0.09442949 1.8844128e-06 -4.423019e-18)
(0.094429429 1.9926981e-06 2.2588579e-18)
(0.094429318 2.098396e-06 0)
(0.094429166 2.2015757e-06 1.7967699e-20)
(0.094429 2.3025662e-06 1.8123699e-20)
(0.094428858 2.4015393e-06 0)
(0.094428772 2.4988289e-06 0)
(0.094428755 2.5945439e-06 -1.8578644e-20)
(0.094428801 2.6887469e-06 2.3970648e-18)
(0.094428892 2.7813526e-06 -2.415923e-18)
(0.094429003 2.8724142e-06 -1.9020965e-20)
(0.094429114 2.9619886e-06 -1.226691e-18)
(0.094429211 3.0502186e-06 1.2553433e-18)
(0.094429287 3.1373827e-06 1.245377e-18)
(0.094429343 3.2234827e-06 -2.5193007e-18)
(0.094429382 3.3089008e-06 1.2641626e-18)
(0.094429409 3.3937673e-06 0)
(0.094429427 3.4781132e-06 2.0049604e-20)
(0.094429439 3.561936e-06 1.3029017e-18)
(0.094429449 3.6452312e-06 -1.2821722e-18)
(0.094429458 3.727984e-06 2.0505498e-20)
(0.094429465 3.8100971e-06 0)
(0.094429472 3.8919207e-06 3.2268034e-19)
(0.094429477 3.9739369e-06 4.3735601e-28)
(0.094429479 4.0564855e-06 -4.9675211e-19)
(0.094429478 4.1395159e-06 1.704117e-19)
(0.09442947 4.2223115e-06 8.580945e-20)
(0.094429454 4.3041646e-06 -8.5761493e-20)
(0.094429429 4.3846979e-06 3.5111778e-19)
(0.094429398 4.4643182e-06 -6.7587704e-19)
(0.094429361 4.5439123e-06 3.3542877e-19)
(0.094429319 4.6246044e-06 1.0404637e-20)
(0.09442927 4.7086602e-06 0)
(0.094429213 4.796e-06 -1.3327843e-18)
(0.094429145 4.883637e-06 1.3026746e-18)
(0.094429064 4.9686491e-06 0)
(0.094428967 5.0502244e-06 -1.2837158e-18)
(0.094428852 5.1314068e-06 2.55863e-18)
(0.094428722 5.2160284e-06 -1.2650065e-18)
(0.094428581 5.3051261e-06 -1.2753287e-18)
(0.094428436 5.3965629e-06 1.2464255e-18)
(0.094428302 5.4890153e-06 -2.4936106e-18)
(0.094428192 5.5819243e-06 4.9305199e-18)
(0.094428121 5.675117e-06 -2.4369738e-18)
(0.094428099 5.7700289e-06 0)
(0.094428131 5.8671243e-06 1.8743629e-20)
(0.094428209 5.9666855e-06 2.398599e-18)
(0.094428319 6.0684287e-06 -2.3790241e-18)
(0.094428442 6.1720456e-06 2.3408729e-18)
(0.09442856 6.2771557e-06 -2.3208342e-18)
(0.094428661 6.3842631e-06 0)
(0.09442874 6.4923703e-06 -2.2796036e-18)
(0.0944288 6.6042609e-06 2.2583267e-18)
(0.094428848 6.7159431e-06 0)
(0.094428886 6.8374301e-06 0)
(0.094428912 6.9525726e-06 0)
(0.094428922 7.0920098e-06 -2.2017136e-18)
(0.094428909 7.2018509e-06 4.3208419e-18)
(0.094428873 7.3738376e-06 3.3106289e-20)
(0.094428827 7.4570784e-06 -2.1258941e-18)
(0.094428804 7.6897599e-06 0)
(0.094428837 7.7193476e-06 1.975791e-18)
(0.094428915 8.0450788e-06 -2.9856176e-18)
(0.094428959 8.0071285e-06 6.1944171e-20)
(0.09442885 8.4720163e-06 9.7599247e-19)
(0.094428584 8.2910396e-06 0)
(0.094428341 9.0810764e-06 0)
(0.094555953 1.7670461e-06 4.5420448e-19)
(0.094473212 -5.6482266e-07 -4.8788953e-19)
(0.094448163 8.3132526e-07 6.1949831e-20)
(0.094441742 2.0218046e-07 1.060093e-18)
(0.094440515 6.8092618e-07 -1.0011709e-18)
(0.094440511 6.124323e-07 0)
(0.094440665 8.4836507e-07 -3.1849452e-20)
(0.09444071 9.0812092e-07 0)
(0.094440613 1.076532e-06 -2.091578e-18)
(0.094440432 1.1760238e-06 2.084896e-18)
(0.094440252 1.3034106e-06 0)
(0.094440129 1.4102458e-06 -2.2018273e-18)
(0.094440073 1.5199175e-06 -3.4243881e-20)
(0.094440056 1.62312e-06 4.4289758e-18)
(0.094440035 1.7244002e-06 -2.2716431e-18)
(0.094439971 1.822579e-06 3.5285639e-20)
(0.094439848 1.9183187e-06 2.2436984e-18)
(0.094439682 2.0116842e-06 -2.2998439e-18)
(0.094439508 2.1029677e-06 0)
(0.094439369 2.192401e-06 0)
(0.094439296 2.280212e-06 -1.8429638e-20)
(0.094439296 2.3664391e-06 1.8578723e-20)
(0.094439361 2.4512223e-06 -2.3781989e-18)
(0.094439465 2.534508e-06 2.4155925e-18)
(0.094439583 2.6163531e-06 0)
(0.094439693 2.6968747e-06 1.2262872e-18)
(0.094439785 2.7762593e-06 -1.2354904e-18)
(0.094439854 2.854622e-06 1.9448335e-20)
(0.094439901 2.9320914e-06 -1.9592472e-20)
(0.094439932 3.0090156e-06 0)
(0.094439952 3.0853633e-06 -1.9882912e-20)
(0.094439964 3.1611959e-06 -2.0029775e-20)
(0.094439972 3.2364852e-06 1.2712148e-18)
(0.094439978 3.3112568e-06 -1.34164e-18)
(0.094439983 3.3855608e-06 6.3486589e-19)
(0.094439988 3.4593777e-06 -6.6026135e-19)
(0.094439992 3.5330644e-06 0)
(0.094439995 3.6067954e-06 -2.0946719e-20)
(0.094439996 3.6808057e-06 1.7940775e-19)
(0.094439993 3.7550704e-06 -1.7015256e-19)
(0.094439984 3.829199e-06 2.1413129e-20)
(0.094439966 3.9028968e-06 -1.7115645e-19)
(0.094439941 3.9754784e-06 -1.8049071e-19)
(0.094439909 4.0469128e-06 3.3721544e-19)
(0.094439872 4.1180671e-06 0)
(0.094439831 4.1902244e-06 2.0765797e-20)
(0.094439784 4.265736e-06 0)
(0.094439729 4.3446733e-06 1.9035839e-26)
(0.094439665 4.4240626e-06 2.0315059e-20)
(0.094439588 4.5009377e-06 0)
(0.094439495 4.5742876e-06 1.2814356e-18)
(0.094439385 4.6469353e-06 -2.5443616e-18)
(0.094439257 4.7228577e-06 2.5456879e-18)
(0.094439116 4.8030118e-06 -1.2538058e-18)
(0.094438968 4.8856182e-06 1.9447634e-20)
(0.094438825 4.9691789e-06 -2.4709645e-18)
(0.094438704 5.0532126e-06 -3.7045359e-27)
(0.094438619 5.1374224e-06 4.8681593e-18)
(0.094438584 5.2231119e-06 -2.4154328e-18)
(0.094438603 5.3108894e-06 2.3965852e-18)
(0.094438674 5.4007083e-06 -2.3589127e-18)
(0.094438781 5.4926052e-06 1.8422548e-20)
(0.094438904 5.5862973e-06 -2.3383276e-18)
(0.094439024 5.6813025e-06 2.3362699e-18)
(0.094439125 5.7786509e-06 -3.5898824e-20)
(0.094439202 5.8763697e-06 2.2763695e-18)
(0.094439259 5.9785187e-06 -2.2898601e-18)
(0.094439301 6.0793257e-06 2.2322475e-18)
(0.094439335 6.1914111e-06 -4.4183374e-18)
(0.094439359 6.2937615e-06 2.1853118e-18)
(0.094439368 6.4250248e-06 2.1606218e-18)
(0.094439354 6.5194272e-06 -4.2700477e-18)
(0.094439312 6.684897e-06 2.1084385e-18)
(0.094439253 6.7522327e-06 3.2512196e-20)
(0.094439211 6.974729e-06 0)
(0.094439228 6.9997051e-06 6.3182914e-20)
(0.094439308 7.2994265e-06 9.3297131e-19)
(0.094439369 7.2701853e-06 -1.0397933e-18)
(0.094439264 7.7259719e-06 -1.0212856e-18)
(0.094438971 7.5024749e-06 1.3552549e-18)
(0.094438694 8.3878866e-06 -4.5191545e-19)
(0.094557312 1.7013012e-06 1.1129724e-19)
(0.094477885 -5.3855614e-07 -1.1970321e-19)
(0.094456032 7.7120014e-07 -6.0939382e-20)
(0.094450815 1.8540235e-07 -6.1465622e-20)
(0.094449979 6.2138308e-07 0)
(0.094450084 5.6362192e-07 -1.9985178e-18)
(0.094450255 7.765089e-07 1.9619199e-18)
(0.094450281 8.3354185e-07 0)
(0.094450155 9.8601907e-07 0)
(0.094449955 1.0772087e-06 0)
(0.094449775 1.1927595e-06 0)
(0.094449669 1.290129e-06 2.1307026e-18)
(0.094449637 1.3896918e-06 5.3786326e-27)
(0.09444964 1.4835158e-06 -2.2127639e-18)
(0.094449626 1.5755117e-06 0)
(0.094449556 1.6643746e-06 -7.0549701e-20)
(0.09444942 1.7509487e-06 7.1216544e-20)
(0.09444924 1.8351545e-06 -1.7966047e-20)
(0.094449061 1.9173417e-06 0)
(0.094448928 1.9977492e-06 -2.3395361e-18)
(0.094448872 2.0766644e-06 2.3772581e-18)
(0.094448896 2.1542532e-06 0)
(0.094448981 2.2305418e-06 -1.8722186e-20)
(0.0944491 2.3055266e-06 0)
(0.094449224 2.37922e-06 -2.4521521e-18)
(0.094449335 2.4516567e-06 2.451297e-18)
(0.094449421 2.522928e-06 -1.2346946e-18)
(0.094449483 2.5931969e-06 -3.8866698e-20)
(0.094449524 2.6626232e-06 1.2527912e-18)
(0.094449549 2.7314842e-06 -1.9716983e-20)
(0.094449564 2.7999223e-06 -1.2511833e-18)
(0.094449572 2.8680354e-06 1.2602737e-18)
(0.094449577 2.93575e-06 1.2896088e-18)
(0.09444958 3.0030049e-06 -1.2787538e-18)
(0.094449583 3.069835e-06 0)
(0.094449586 3.1362529e-06 -6.3856373e-19)
(0.094449589 3.2024071e-06 6.6408863e-19)
(0.094449592 3.2684455e-06 3.554549e-19)
(0.094449592 3.3345422e-06 -5.2669806e-19)
(0.094449588 3.4007968e-06 8.4916887e-20)
(0.094449578 3.4671592e-06 6.4100387e-20)
(0.09444956 3.5333457e-06 0)
(0.094449534 3.5986694e-06 3.3891395e-19)
(0.094449502 3.6628501e-06 -3.3639233e-19)
(0.094449466 3.7263736e-06 -6.8868786e-19)
(0.094449426 3.7908574e-06 1.3051382e-18)
(0.094449381 3.8584429e-06 -6.3754166e-19)
(0.094449329 3.9292202e-06 2.0417329e-20)
(0.094449269 4.000925e-06 -1.3175939e-18)
(0.094449196 4.0702129e-06 1.2880453e-18)
(0.094449108 4.1360429e-06 1.2988409e-18)
(0.094449002 4.2010872e-06 -2.5196524e-18)
(0.094448877 4.2693088e-06 1.2409896e-18)
(0.094448736 4.341646e-06 -1.955723e-20)
(0.094448584 4.416266e-06 0)
(0.094448434 4.49183e-06 -1.9275364e-20)
(0.094448301 4.5676464e-06 1.9133744e-20)
(0.094448202 4.6436308e-06 -2.4308644e-18)
(0.094448151 4.7207877e-06 -1.8847066e-20)
(0.094448157 4.7996507e-06 2.3937445e-18)
(0.094448219 4.880418e-06 -3.7105683e-20)
(0.094448322 4.9630127e-06 1.8401707e-20)
(0.094448447 5.0474188e-06 0)
(0.09444857 5.1329728e-06 -5.4266786e-20)
(0.094448674 5.221273e-06 7.1704853e-20)
(0.094448751 5.3094221e-06 -3.5517051e-20)
(0.094448803 5.4031259e-06 3.517061e-20)
(0.094448841 5.4935241e-06 -2.2627619e-18)
(0.094448871 5.5978901e-06 2.204118e-18)
(0.094448894 5.6878732e-06 -2.2133679e-18)
(0.094448903 5.8121007e-06 2.1871101e-18)
(0.094448889 5.8924367e-06 -3.3225832e-20)
(0.094448846 6.0506104e-06 -2.1309576e-18)
(0.094448777 6.106071e-06 2.0361831e-18)
(0.094448715 6.3151451e-06 0)
(0.094448714 6.3391307e-06 -6.2637783e-20)
(0.094448796 6.6110991e-06 1.2310238e-19)
(0.094448878 6.5922848e-06 0)
(0.094448784 7.027667e-06 5.9172702e-20)
(0.094448463 6.7856263e-06 5.7862048e-20)
(0.094448149 7.712011e-06 -1.1066357e-19)
(0.094558128 1.5818897e-06 -1.0910539e-19)
(0.094482084 -4.952645e-07 1.1749059e-19)
(0.094463258 6.9548054e-07 -1.198917e-19)
(0.094459099 1.7310671e-07 0)
(0.094458586 5.5989812e-07 6.1136112e-20)
(0.094458772 5.1664601e-07 1.9194775e-18)
(0.094458951 7.068876e-07 -3.9617845e-18)
(0.094458956 7.6228252e-07 -6.2849264e-27)
(0.094458798 8.9950976e-07 2.0112252e-18)
(0.09445858 9.8376546e-07 2.1059599e-18)
(0.094458407 1.0882106e-06 -2.1342175e-18)
(0.094458325 1.1765677e-06 6.75323e-20)
(0.094458319 1.2667039e-06 3.4165165e-20)
(0.094458341 1.3515005e-06 2.2455055e-18)
(0.094458333 1.4345205e-06 -2.234331e-18)
(0.094458254 1.5147585e-06 3.5262172e-20)
(0.094458101 1.5928988e-06 -2.2783996e-18)
(0.094457907 1.6689096e-06 2.2992865e-18)
(0.094457725 1.743104e-06 0)
(0.094457605 1.815621e-06 -1.8274979e-20)
(0.094457571 1.8866794e-06 0)
(0.094457621 1.9564039e-06 -1.8571531e-20)
(0.09445773 2.0248005e-06 1.8715544e-20)
(0.094457863 2.0918753e-06 0)
(0.094457994 2.1577271e-06 1.455166e-26)
(0.094458103 2.2224653e-06 -1.2247639e-18)
(0.094458185 2.2862623e-06 -1.9275479e-20)
(0.094458241 2.3492752e-06 1.2618987e-18)
(0.094458277 2.411723e-06 1.4980796e-26)
(0.094458297 2.4737011e-06 1.969155e-20)
(0.094458308 2.5351939e-06 1.9831659e-20)
(0.094458314 2.5962756e-06 -1.2583049e-18)
(0.094458317 2.6567899e-06 1.3075487e-18)
(0.094458319 2.7167958e-06 0)
(0.094458321 2.7764141e-06 -6.3265205e-19)
(0.094458323 2.8358275e-06 1.2951254e-18)
(0.094458326 2.8950846e-06 -1.0147649e-18)
(0.094458327 2.954223e-06 3.1296137e-19)
(0.094458327 3.0133327e-06 0)
(0.094458323 3.0725686e-06 0)
(0.094458313 3.1318727e-06 0)
(0.094458295 3.1909505e-06 0)
(0.094458269 3.2494302e-06 2.112318e-20)
(0.094458238 3.3069073e-06 3.3546224e-19)
(0.094458203 3.363518e-06 -9.7817876e-19)
(0.094458165 3.4210513e-06 6.4048689e-19)
(0.094458122 3.4815736e-06 -6.9740503e-19)
(0.094458074 3.5449807e-06 1.9550661e-18)
(0.094458017 3.609396e-06 2.0220726e-20)
(0.094457949 3.671571e-06 -1.2849947e-18)
(0.094457866 3.7305731e-06 -1.9936929e-20)
(0.094457764 3.7887124e-06 -1.9797064e-20)
(0.094457643 3.8498873e-06 0)
(0.094457502 3.9149429e-06 1.9519712e-20)
(0.094457348 3.9821454e-06 1.9381446e-20)
(0.094457191 4.050367e-06 1.9242938e-20)
(0.094457046 4.1186368e-06 -1.9103699e-20)
(0.094456931 4.1869631e-06 0)
(0.094456864 4.2562673e-06 1.8821159e-20)
(0.094456855 4.3270276e-06 0)
(0.094456907 4.3995326e-06 1.8529784e-20)
(0.094457006 4.4736706e-06 -1.8379406e-20)
(0.094457133 4.5496963e-06 -2.3692652e-18)
(0.09445726 4.6265664e-06 2.3486192e-18)
(0.094457369 4.7066053e-06 -3.5804637e-20)
(0.094457446 4.7857361e-06 3.5464932e-20)
(0.094457497 4.871834e-06 0)
(0.09445753 4.951797e-06 3.474442e-20)
(0.094457556 5.0495394e-06 2.1990771e-18)
(0.094457578 5.1269271e-06 -4.3466973e-18)
(0.094457588 5.2454814e-06 2.1463489e-18)
(0.094457577 5.3126288e-06 0)
(0.094457533 5.4634138e-06 -2.0879954e-18)
(0.094457457 5.5103884e-06 1.9920808e-18)
(0.094457377 5.703288e-06 -6.3212699e-20)
(0.094457354 5.7297256e-06 6.209962e-20)
(0.094457436 5.9728113e-06 -6.0914067e-20)
(0.094457544 5.9654992e-06 -1.0140076e-18)
(0.094457469 6.3715519e-06 1.7487029e-18)
(0.09445712 6.1310474e-06 -9.0927222e-19)
(0.094456764 7.0502077e-06 1.0841844e-19)
(0.094558385 1.4224122e-06 4.2789695e-19)
(0.094485875 -4.3974574e-07 -5.7665919e-19)
(0.094469878 6.0865048e-07 -8.2557424e-19)
(0.094466642 1.6390585e-07 -9.5576427e-19)
(0.094466392 4.9737599e-07 3.8688313e-18)
(0.094466638 4.7171315e-07 6.1400649e-20)
(0.09446682 6.3905074e-07 -2.0622221e-18)
(0.094466798 6.9325822e-07 0)
(0.094466606 8.1642857e-07 -1.9390834e-18)
(0.094466373 8.9300714e-07 2.0998809e-18)
(0.094466214 9.8766106e-07 2.129522e-18)
(0.094466161 1.0677252e-06 -4.382385e-18)
(0.094466184 1.1494219e-06 2.149824e-18)
(0.094466225 1.226214e-06 -2.243586e-18)
(0.094466219 1.3013858e-06 2.1981047e-18)
(0.094466128 1.3738128e-06 0)
(0.094465956 1.4441558e-06 -3.5589314e-20)
(0.094465747 1.512367e-06 2.2987349e-18)
(0.094465566 1.5787413e-06 -4.6379988e-18)
(0.094465462 1.6435218e-06 2.3568747e-18)
(0.094465457 1.7070167e-06 2.3760614e-18)
(0.094465538 1.7693591e-06 1.8564073e-20)
(0.09446567 1.8306149e-06 -2.4317737e-18)
(0.094465818 1.8907793e-06 -1.8845358e-20)
(0.094465952 1.9498402e-06 -2.4298097e-18)
(0.09446606 2.0078863e-06 1.2236212e-18)
(0.094466137 2.0649235e-06 1.2322862e-18)
(0.094466188 2.1211474e-06 0)
(0.094466218 2.1768145e-06 1.3511581e-26)
(0.094466236 2.2319968e-06 0)
(0.094466245 2.2868588e-06 -1.9797502e-20)
(0.094466249 2.3414063e-06 -1.2958226e-18)
(0.094466252 2.3955219e-06 -2.0075698e-20)
(0.094466253 2.4492562e-06 1.2737165e-18)
(0.094466255 2.5026595e-06 -2.0362077e-20)
(0.094466257 2.5557796e-06 6.5628763e-19)
(0.094466259 2.6085611e-06 -6.4041922e-19)
(0.094466261 2.6611365e-06 -3.121698e-19)
(0.09446626 2.7136533e-06 3.3547219e-19)
(0.094466256 2.7663373e-06 -2.1125819e-20)
(0.094466247 2.819132e-06 8.5005174e-20)
(0.094466229 2.8718054e-06 -8.4863561e-20)
(0.094466204 2.9240404e-06 -2.1056963e-20)
(0.094466175 2.9755359e-06 3.3441825e-19)
(0.094466142 3.0262514e-06 -3.3197409e-19)
(0.094466105 3.0774965e-06 -6.1795672e-19)
(0.094466065 3.1314305e-06 1.3293481e-18)
(0.09446602 3.1879147e-06 6.4982483e-19)
(0.094465967 3.245339e-06 -1.3308811e-18)
(0.094465904 3.300964e-06 -2.0024737e-20)
(0.094465825 3.3537222e-06 0)
(0.094465729 3.4056898e-06 0)
(0.094465611 3.4605102e-06 -1.274863e-18)
(0.094465472 3.5187289e-06 1.2271024e-18)
(0.094465316 3.5790808e-06 -1.3427279e-26)
(0.094465152 3.640493e-06 0)
(0.094464996 3.7016797e-06 0)
(0.094464865 3.7628539e-06 -2.4233502e-18)
(0.09446478 3.8247549e-06 2.4054525e-18)
(0.094464756 3.8879419e-06 0)
(0.094464796 3.9528764e-06 1.8504733e-20)
(0.094464891 4.0190118e-06 2.3494943e-18)
(0.094465019 4.0874487e-06 7.2806474e-20)
(0.094465153 4.1561991e-06 -2.3455365e-18)
(0.094465267 4.2289612e-06 3.5755156e-20)
(0.094465348 4.2992377e-06 0)
(0.094465396 4.3788907e-06 0)
(0.094465425 4.4486346e-06 0)
(0.094465447 4.5410588e-06 -3.4281747e-20)
(0.094465467 4.606305e-06 2.3562385e-26)
(0.094465479 4.7195957e-06 -2.1392692e-18)
(0.09446547 4.7756805e-06 2.0765307e-18)
(0.09446543 4.9170897e-06 6.4934114e-20)
(0.094465351 4.9596067e-06 6.3883903e-20)
(0.094465253 5.1336903e-06 -1.8829292e-18)
(0.094465206 5.164382e-06 1.9701733e-18)
(0.094465283 5.3796585e-06 9.0429463e-19)
(0.094465423 5.3825652e-06 -1.8262031e-18)
(0.094465372 5.7533491e-06 1.1485463e-18)
(0.094464997 5.5293576e-06 -1.1165128e-19)
(0.094464591 6.4051685e-06 1.0624147e-19)
(0.094558077 1.2324411e-06 0)
(0.094489309 -3.7614028e-07 1.1322495e-19)
(0.094475926 5.1450726e-07 1.1602165e-19)