/*--------------------------------*- C++ -*----------------------------------*\
| =========                 |                                                 |
| \\      /  F ield         | OpenFOAM: The Open Source CFD Toolbox           |
|  \\    /   O peration     | Version:  v2006                                 |
|   \\  /    A nd           | Website:  www.openfoam.com                      |
|    \\/     M anipulation  |                                                 |
\*---------------------------------------------------------------------------*/
FoamFile
{
    version     2.0;
    format      ascii;
    class       volVectorField;
    location    "10000";
    object      wallShearStress;
}
// * * * * * * * * * * * * * * * * * * * * * * * * * * * * * * * * * * * * * //

dimensions      [1 -1 -2 0 0 0 0];


internalField   uniform (0 0 0);

boundaryField
{
    Side
    {
        type            empty;
    }
    Ground
    {
        type            calculated;
        value           uniform (0 0 0);
    }
    Inlet
    {
        type            calculated;
        value           uniform (0 0 0);
    }
    Airfoil
    {
        type            calculated;
        value           nonuniform List<vector> 
646
(
(1.4727805e-06 1.4458943e-08 -2.0786875e-20)
(1.0302942e-06 5.0772737e-07 -2.5522101e-20)
(4.9059959e-06 1.3591662e-06 -1.2997323e-20)
(2.9018854e-06 7.6563416e-07 -1.3248544e-20)
(3.7189447e-06 1.0036145e-06 -1.3451767e-20)
(3.3120718e-06 9.4943069e-07 -1.1479437e-41)
(3.576779e-06 1.0154176e-06 -1.3818653e-20)
(3.3648825e-06 9.4730288e-07 -3.415069e-24)
(3.2749409e-06 8.928436e-07 7.3181411e-41)
(3.1124155e-06 8.4626259e-07 -6.9868702e-24)
(3.098799e-06 8.3647245e-07 -2.8927867e-20)
(3.0434304e-06 8.2050588e-07 -1.4586663e-20)
(3.0708932e-06 8.2461227e-07 -1.4729928e-20)
(3.044601e-06 8.02751e-07 -7.2603895e-24)
(3.0597942e-06 8.0310447e-07 1.4999803e-20)
(3.0564903e-06 7.8345389e-07 6.0537959e-37)
(3.0536311e-06 7.8010975e-07 5.8774718e-39)
(3.0712304e-06 7.7447855e-07 -7.6813488e-21)
(3.0755247e-06 7.7246119e-07 7.740076e-21)
(3.0929924e-06 7.7017643e-07 7.7989573e-21)
(3.0947389e-06 7.652346e-07 2.2958874e-41)
(3.1148469e-06 7.6670297e-07 7.9130389e-21)
(3.1150075e-06 7.5544288e-07 1.5564118e-23)
(3.1180319e-06 7.5402276e-07 -8.0245469e-21)
(3.1361011e-06 7.4885316e-07 8.0481542e-21)
(3.1267839e-06 7.3810115e-07 -8.1014034e-21)
(3.1456017e-06 7.3956741e-07 8.1550599e-21)
(3.1517555e-06 7.2661989e-07 3.2184758e-23)
(3.1405975e-06 7.1793184e-07 -1.619756e-23)
(3.164612e-06 7.2001528e-07 -8.3516139e-21)
(3.1647147e-06 7.0534336e-07 1.1754944e-38)
(3.1541007e-06 6.9833869e-07 -1.6511964e-23)
(3.1727769e-06 6.9903773e-07 1.7026259e-20)
(3.1727159e-06 6.8675686e-07 -8.5711715e-21)
(3.1620976e-06 6.7922144e-07 -8.5698353e-21)
(3.1713875e-06 6.7790935e-07 -8.6794612e-21)
(3.172056e-06 6.6951054e-07 8.714874e-21)
(3.1651633e-06 6.604571e-07 -8.7627287e-21)
(3.1612509e-06 6.5669018e-07 1.7206916e-23)
(3.17185e-06 6.5322124e-07 -1.7300197e-23)
(3.1577806e-06 6.3752955e-07 -3.7615819e-37)
(3.1525621e-06 6.3278926e-07 -1.7935606e-20)
(3.1540993e-06 6.2945699e-07 1.4693679e-37)
(3.1548971e-06 6.1577686e-07 -1.7694598e-23)
(3.1336445e-06 6.0225787e-07 -9.094743e-21)
(3.1344051e-06 5.9736062e-07 9.1516963e-21)
(3.1336467e-06 5.9314621e-07 3.3197984e-28)
(3.1258576e-06 5.6875096e-07 1.8082969e-23)
(3.1004865e-06 5.5850761e-07 9.3112124e-21)
(3.1006048e-06 5.5254306e-07 2.9387359e-39)
(3.0923833e-06 5.4577894e-07 -1.1754944e-38)
(3.0776567e-06 5.186162e-07 -9.454664e-21)
(3.0549475e-06 5.1000822e-07 -9.5134269e-21)
(3.0466664e-06 5.0193193e-07 -1.0990872e-36)
(3.0345965e-06 4.942072e-07 0)
(3.0110983e-06 4.6779939e-07 9.6096663e-37)
(2.9935331e-06 4.5892693e-07 9.698338e-21)
(2.9716411e-06 4.4847065e-07 1.9060894e-23)
(2.9584704e-06 4.396255e-07 -1.9141844e-23)
(2.921583e-06 4.1522902e-07 1.9257213e-23)
(2.9087976e-06 4.03273e-07 4.9554822e-21)
(2.8688907e-06 3.8958267e-07 4.9758272e-21)
(2.8592457e-06 3.7922442e-07 9.845827e-28)
(2.8034734e-06 3.5526461e-07 1.4012985e-45)
(2.7882849e-06 3.3536672e-07 2.2040519e-38)
(2.7364359e-06 3.2000343e-07 -1.0144398e-20)
(2.7158698e-06 3.0595653e-07 5.1074535e-21)
(2.6711858e-06 2.9051481e-07 -9.1835496e-38)
(2.5900271e-06 2.5063579e-07 1.0294321e-20)
(2.5833862e-06 2.3783932e-07 -2.0571151e-38)
(2.5074115e-06 2.1519337e-07 -2.0324186e-23)
(2.4893331e-06 1.9782379e-07 4.0803288e-23)
(2.3891637e-06 1.6571342e-07 -4.1055479e-23)
(2.3165272e-06 1.2996224e-07 5.2793149e-21)
(2.2808743e-06 1.1184749e-07 5.3192527e-21)
(2.2088836e-06 9.0052838e-08 -8.1439718e-37)
(2.1569472e-06 6.7265246e-08 5.3345526e-21)
(2.0216074e-06 3.169592e-08 5.3960304e-21)
(1.9451508e-06 5.235507e-11 -2.1117998e-23)
(1.8773934e-06 -2.4284614e-08 -5.4109088e-21)
(1.7935716e-06 -5.0572092e-08 -5.4514664e-21)
(1.703592e-06 -7.778447e-08 2.0777781e-39)
(1.5300609e-06 -1.1456152e-07 -5.5094566e-21)
(1.4194033e-06 -1.4698249e-07 5.5287228e-21)
(1.3269554e-06 -1.7339265e-07 -1.4693679e-39)
(1.2007705e-06 -2.0905939e-07 -2.9387359e-39)
(1.089555e-06 -2.4859007e-07 5.6061829e-21)
(8.5871451e-07 -2.9921834e-07 1.0285576e-38)
(6.6159201e-07 -3.3847947e-07 -5.6653055e-21)
(5.9762706e-07 -3.7053614e-07 -6.6121557e-39)
(3.6046883e-07 -4.1396719e-07 2.1011962e-37)
(2.9876154e-07 -4.6024095e-07 5.743787e-21)
(-7.6170777e-08 -5.2273773e-07 -5.785571e-21)
(-4.730661e-07 -5.9373042e-07 2.2662069e-23)
(-5.0118898e-07 -6.3423546e-07 -5.8230618e-21)
(-8.0088796e-07 -6.9470945e-07 5.8774718e-39)
(-9.2328547e-07 -7.5247877e-07 0)
(-1.3026184e-06 -8.313721e-07 0)
(-1.893588e-06 -9.0848922e-07 -7.3468397e-40)
(-2.1433844e-06 -9.6242124e-07 -2.9784802e-21)
(-2.3057795e-06 -1.0205158e-06 -1.4693679e-39)
(-2.6748209e-06 -1.0791606e-06 2.1670128e-39)
(-2.7631188e-06 -1.1574264e-06 4.7639664e-40)
(-3.4701895e-06 -1.2403643e-06 -2.3638524e-23)
(-4.185511e-06 -1.2966928e-06 2.3740962e-23)
(-4.2193838e-06 -1.3545096e-06 -6.1357871e-21)
(-4.5816909e-06 -1.4215396e-06 2.3949372e-23)
(-4.8882448e-06 -1.4908371e-06 3.0558401e-21)
(-5.2058344e-06 -1.5821816e-06 2.4185617e-23)
(-6.0005053e-06 -1.6587763e-06 2.4254636e-23)
(-6.6250086e-06 -1.7107307e-06 3.0717901e-21)
(-6.7817605e-06 -1.7820548e-06 2.4495056e-23)
(-7.1928554e-06 -1.8557596e-06 -3.1448711e-21)
(-7.5399122e-06 -1.9390362e-06 -3.18751e-21)
(-7.9889784e-06 -2.0445401e-06 3.2005305e-21)
(-8.9571987e-06 -2.1161933e-06 3.1846922e-21)
(-9.6283996e-06 -2.1642969e-06 -3.2293445e-21)
(-9.8394784e-06 -2.2457185e-06 -3.1912127e-21)
(-1.0303431e-05 -2.3261831e-06 1.8367099e-39)
(-1.0725612e-05 -2.4167875e-06 -2.031846e-37)
(-1.119705e-05 -2.5454233e-06 -2.5451286e-23)
(-1.247962e-05 -2.6119069e-06 3.2931731e-21)
(-1.3400864e-05 -2.6319068e-06 3.2889981e-21)
(-1.3541748e-05 -2.7245524e-06 -3.3251979e-21)
(-1.403549e-05 -2.8139146e-06 2.587524e-23)
(-1.4584592e-05 -2.8937211e-06 6.6646001e-21)
(-1.4798629e-05 -3.0676208e-06 -2.5640471e-37)
(-1.6453298e-05 -3.1417938e-06 -3.354477e-21)
(-1.7940297e-05 -3.0864198e-06 1.8729419e-39)
(-1.7880338e-05 -3.1907145e-06 -3.3847132e-21)
(-1.8408727e-05 -3.2760125e-06 3.3865803e-21)
(-1.8944001e-05 -3.3545376e-06 -3.4186793e-21)
(-1.923489e-05 -3.5138413e-06 -3.42969e-21)
(-2.0546683e-05 -3.6220001e-06 -3.4308402e-21)
(-2.2350206e-05 -3.5633604e-06 3.4749505e-21)
(-2.2826917e-05 -3.6025231e-06 -1.356635e-23)
(-2.3137174e-05 -3.6991635e-06 1.9623559e-39)
(-2.366648e-05 -3.7866438e-06 -1.3702144e-23)
(-2.4204367e-05 -3.881906e-06 3.5332374e-21)
(-2.4635895e-05 -4.0796104e-06 1.3810227e-23)
(-2.6672633e-05 -4.0922487e-06 1.7623246e-21)
(-2.8266324e-05 -3.9692596e-06 -1.7819624e-21)
(-2.8207463e-05 -4.0924716e-06 -4.7570787e-38)
(-2.8756379e-05 -4.1760116e-06 1.4063596e-23)
(-2.9322235e-05 -4.2582513e-06 -1.9718044e-27)
(-2.9745457e-05 -4.4060503e-06 3.6171122e-21)
(-3.0862714e-05 -4.5371542e-06 3.6734198e-40)
(-3.2932983e-05 -4.4527145e-06 -1.4069198e-37)
(-3.3902651e-05 -4.4068479e-06 1.8244114e-21)
(-3.4088404e-05 -4.5195557e-06 1.4440874e-23)
(-3.4654399e-05 -4.6067003e-06 1.8402177e-21)
(-3.5271703e-05 -4.692689e-06 1.8783709e-21)
(-3.5663299e-05 -4.8770294e-06 -1.8738197e-21)
(-3.7138248e-05 -4.9662699e-06 -3.0511314e-27)
(-3.9152652e-05 -4.8405204e-06 2.2958874e-41)
(-3.9805419e-05 -4.8571149e-06 -1.4829769e-23)
(-4.0184416e-05 -4.9607328e-06 1.9200413e-21)
(-4.0804151e-05 -5.049191e-06 1.102026e-39)
(-4.1478872e-05 -5.1333454e-06 1.5037563e-23)
(-4.192086e-05 -5.3213589e-06 -1.5093347e-23)
(-4.3488249e-05 -5.3998675e-06 1.5142496e-23)
(-4.5523253e-05 -5.2656882e-06 -2.1696704e-27)
(-4.6176541e-05 -5.2998738e-06 1.9423516e-21)
(-4.6626922e-05 -5.4130712e-06 -1.5349719e-23)
(-4.7311875e-05 -5.5111963e-06 -1.9620047e-21)
(-4.8052656e-05 -5.5996279e-06 -3.1415721e-27)
(-4.8488068e-05 -5.818189e-06 3.9856549e-21)
(-5.0266811e-05 -5.9297997e-06 -1.5644621e-23)
(-5.3132994e-05 -5.6897355e-06 4.023471e-21)
(-5.4161115e-05 -5.617843e-06 2.0351456e-21)
(-5.4344912e-05 -5.7550343e-06 1.5852399e-23)
(-5.4972825e-05 -5.8579689e-06 -1.5946592e-23)
(-5.5711958e-05 -5.9468676e-06 -3.2784992e-27)
(-5.6165859e-05 -6.1432579e-06 -2.0567629e-21)
(-5.7337124e-05 -6.4291176e-06 2.0698135e-21)
(-6.1659367e-05 -6.0871942e-06 2.0592884e-21)
(-6.4161426e-05 -5.6249647e-06 1.0580347e-21)
(-6.3546184e-05 -5.83247e-06 -1.8367099e-40)
(-6.3985847e-05 -5.9325336e-06 1.6454931e-23)
(-6.4616804e-05 -6.0171172e-06 -1.0739314e-21)
(-6.5233777e-05 -6.0878349e-06 -6.3204704e-38)
(-6.481327e-05 -6.6092663e-06 -1.0689422e-21)
(-6.9469958e-05 -6.401301e-06 -5.5101298e-40)
(-7.4273931e-05 -5.477756e-06 -8.6646791e-38)
(-7.3442656e-05 -5.6247579e-06 -1.081827e-21)
(-7.3541719e-05 -5.7242274e-06 1.0875821e-21)
(-7.3905251e-05 -5.8125162e-06 -1.7064856e-23)
(-7.4482856e-05 -5.8802148e-06 -1.0968227e-21)
(-7.4812319e-05 -6.0532604e-06 2.7093351e-27)
(-7.5962828e-05 -6.2517641e-06 2.2343555e-21)
(-7.964828e-05 -5.8942917e-06 3.3060779e-39)
(-8.1696455e-05 -5.499877e-06 -1.1178872e-21)
(-8.1288741e-05 -5.6706197e-06 1.1246491e-21)
(-8.1768829e-05 -5.7374333e-06 -1.1208428e-21)
(-8.2328333e-05 -5.8088124e-06 1.1257467e-21)
(-8.2985406e-05 -5.874543e-06 -1.149811e-21)
(-8.3524223e-05 -6.0070084e-06 8.96376e-24)
(-8.4818447e-05 -6.0555332e-06 1.1519809e-21)
(-8.6545025e-05 -5.9366038e-06 -2.2958874e-40)
(-8.733935e-05 -5.9446558e-06 1.3773313e-27)
(-8.7841668e-05 -6.0400069e-06 2.5713939e-39)
(-8.8512338e-05 -6.1272965e-06 2.3414055e-21)
(-8.9296555e-05 -6.1997041e-06 9.224119e-24)
(-8.9966213e-05 -6.2764246e-06 -9.2748484e-24)
(-8.9933279e-05 -6.6473716e-06 1.9269794e-27)
(-9.3445645e-05 -6.548814e-06 1.6590511e-27)
(-9.7624866e-05 -5.8641068e-06 2.4158486e-21)
(-9.7483172e-05 -5.8953466e-06 -6.0482974e-22)
(-9.7254272e-05 -6.047442e-06 1.2267909e-21)
(-9.7318292e-05 -6.1981648e-06 -6.2115652e-22)
(-9.7732022e-05 -6.2863635e-06 -1.2290663e-21)
(-9.7527178e-05 -6.4246388e-06 -6.1747277e-22)
(-9.4790663e-05 -7.7264255e-06 6.2158862e-22)
(-0.00010803288 -6.861751e-06 -2.5438432e-38)
(-0.00012234163 -3.5004893e-06 3.5873241e-42)
(-0.00011802688 -3.480844e-06 -9.8001476e-24)
(-0.0001151237 -3.7919226e-06 9.8606619e-24)
(-0.00011317638 -4.0610976e-06 -3.1773554e-22)
(-0.0001122985 -4.1925216e-06 -3.294179e-22)
(-0.0001111104 -4.2889294e-06 -3.1106702e-22)
(-0.00010500085 -6.2415873e-06 -1.9629837e-38)
(-0.0001218447 -5.1756625e-06 4.177403e-38)
(-0.00014858788 1.281652e-06 1.0101922e-23)
(-0.00014576195 2.8895227e-06 -1.0146864e-23)
(-0.00013650772 1.8200135e-06 -1.6347897e-22)
(-0.00013204604 1.3908299e-06 1.6459302e-22)
(-0.0001285976 1.0299873e-06 1.5526481e-22)
(-0.00012576777 7.9666339e-07 1.0428004e-23)
(-0.00011981173 -5.2769652e-07 -1.6787935e-22)
(-0.0001246787 -1.2965653e-06 -1.6806967e-22)
(-0.00015762137 5.5681982e-06 1.0465812e-23)
(-0.00016866066 1.1933608e-05 6.2119059e-27)
(-0.00015123315 9.103265e-06 -2.1170386e-23)
(-0.00014587432 8.5830638e-06 -6.730335e-22)
(-0.00014050238 7.877298e-06 9.1835496e-41)
(-0.00013731052 7.5831516e-06 4.5917748e-41)
(-0.0001329763 7.1059647e-06 -6.8649815e-22)
(-0.00012198849 3.9650946e-06 -7.2417039e-22)
(-0.0001497195 8.4748787e-06 1.0899577e-23)
(-0.00017323212 1.8073262e-05 1.4022178e-21)
(-0.00015423909 1.5000962e-05 -3.8992923e-27)
(-0.00014798345 1.4232952e-05 1.4232413e-21)
(-0.00014154786 1.3266492e-05 1.1204396e-23)
(-0.0001369876 1.2629106e-05 -2.256806e-23)
(-0.00013288756 1.2092961e-05 2.9086481e-21)
(-0.00012542207 1.0470208e-05 1.1443025e-23)
(-0.00012770845 9.9915047e-06 -1.4655158e-21)
(-0.00016393473 1.8925573e-05 5.6857318e-24)
(-0.00017586945 2.6875264e-05 -5.7064119e-24)
(-0.00015413125 2.2293844e-05 1.4740057e-21)
(-0.00014750375 2.1294108e-05 7.3468397e-40)
(-0.00014031723 1.9983989e-05 1.102026e-39)
(-0.0001353985 1.9154401e-05 -1.5191753e-21)
(-0.00013072205 1.8333612e-05 -1.1698328e-27)
(-0.00012241503 1.6309275e-05 6.000902e-24)
(-0.00013237728 1.8141134e-05 3.0615194e-21)
(-0.0001589577 2.6889127e-05 -7.0529661e-38)
(-0.00015807658 2.9818679e-05 5.9992711e-24)
(-0.00014347898 2.6525032e-05 -1.5562341e-21)
(-0.00013711836 2.5298592e-05 -6.116703e-24)
(-0.00013111262 2.4050777e-05 1.5849847e-21)
(-0.00012661371 2.3147518e-05 -1.5913509e-21)
(-0.00012251712 2.2288522e-05 -1.6033615e-21)
(-0.00011636289 2.080401e-05 4.7387116e-38)
(-0.00012205338 2.2132751e-05 6.3031204e-24)
(-0.00013962078 2.8151589e-05 -6.2933021e-24)
(-0.00013861235 3.0016531e-05 -1.6146684e-21)
(-0.00012733958 2.7301131e-05 2.0361338e-27)
(-0.00012219459 2.6188742e-05 -6.453866e-24)
(-0.00011708493 2.5017022e-05 -1.6599475e-21)
(-0.00011304834 2.4110823e-05 -1.6865601e-21)
(-0.00010969657 2.3342951e-05 1.6929633e-21)
(-0.00010505428 2.2174558e-05 -1.7064025e-21)
(-0.00010459275 2.2124702e-05 -6.6710005e-24)
(-0.00012602825 2.8482021e-05 6.6156222e-24)
(-0.00013324302 3.3555168e-05 -1.6965665e-21)
(-0.00011808378 2.9511943e-05 -1.7205994e-21)
(-0.00011365233 2.847589e-05 -6.7962345e-24)
(-0.00010824902 2.7086478e-05 -1.7559838e-21)
(-0.00010435618 2.6106072e-05 0)
(-0.00010112417 2.5333029e-05 3.5712384e-21)
(-9.7956528e-05 2.4401006e-05 0)
(-9.273175e-05 2.3215778e-05 -3.6302687e-21)
(-0.00010505661 2.6670128e-05 -9.2479949e-28)
(-0.00011813922 3.239758e-05 7.0431001e-24)
(-0.00010987806 3.1022409e-05 1.8147536e-21)
(-0.00010354209 2.9282409e-05 -2.9387359e-39)
(-9.9010954e-05 2.8031759e-05 -3.7081331e-21)
(-9.5286716e-05 2.698541e-05 -1.8710634e-21)
(-9.2062196e-05 2.6092611e-05 7.3726064e-24)
(-8.9694806e-05 2.5433646e-05 1.8950187e-21)
(-8.6921031e-05 2.4588144e-05 7.4894619e-24)
(-8.2931977e-05 2.3798464e-05 -9.0477488e-29)
(-9.6028918e-05 2.7499602e-05 1.9002629e-21)
(-0.00010383426 3.203513e-05 1.9203632e-21)
(-9.2692414e-05 2.8703576e-05 -1.9442475e-21)
(-8.9878508e-05 2.7907806e-05 3.8336305e-24)
(-8.5938622e-05 2.6724496e-05 1.9815453e-21)
(-8.3179444e-05 2.589293e-05 1.9993825e-21)
(-8.0590479e-05 2.5133385e-05 -2.016488e-21)
(-7.8855654e-05 2.4609176e-05 -2.0326423e-21)
(-7.6556989e-05 2.3868312e-05 -2.0483006e-21)
(-7.3474909e-05 2.3420781e-05 0)
(-8.7232035e-05 2.7311325e-05 3.9595586e-24)
(-9.5663167e-05 3.2403437e-05 2.037739e-21)
(-8.5142672e-05 2.9147576e-05 2.0644068e-21)
(-8.244083e-05 2.8304682e-05 -2.0903855e-21)
(-7.8771831e-05 2.7115839e-05 2.1114122e-21)
(-7.6309408e-05 2.6309066e-05 2.1312567e-21)
(-7.3987754e-05 2.5559069e-05 9.1835496e-41)
(-7.2222167e-05 2.4982541e-05 2.1681226e-21)
(-7.0491838e-05 2.440773e-05 -1.55753e-37)
(-6.8749972e-05 2.4072143e-05 -2.2002554e-21)
(-7.2888964e-05 2.5616645e-05 -4.3864643e-21)
(-7.874762e-05 2.8247909e-05 4.2937909e-24)
(-7.6308268e-05 2.7917067e-05 2.2094644e-21)
(-7.233579e-05 2.6580978e-05 4.3720625e-24)
(-7.0064736e-05 2.5800975e-05 2.2667164e-21)
(-6.7901308e-05 2.5053056e-05 -2.2318807e-24)
(-6.6105251e-05 2.443443e-05 0)
(-6.4551212e-05 2.390995e-05 -2.3253737e-21)
(-6.3349938e-05 2.3490962e-05 -2.3463585e-21)
(-6.1992058e-05 2.3031179e-05 2.3668393e-21)
(-6.094724e-05 2.3021043e-05 -2.9387359e-39)
(-6.6686539e-05 2.5047556e-05 2.297098e-24)
(-7.0168721e-05 2.6994347e-05 -2.3177107e-24)
(-6.5296498e-05 2.5394117e-05 -2.3977944e-21)
(-6.360976e-05 2.4784453e-05 -2.4306193e-21)
(-6.1501983e-05 2.4034111e-05 -2.4496064e-21)
(-5.9975634e-05 2.348299e-05 -2.4165541e-24)
(-5.8530923e-05 2.2975582e-05 -2.4997154e-21)
(-5.7399183e-05 2.2592163e-05 5.0414385e-21)
(-5.6576112e-05 2.2299544e-05 -2.5403468e-21)
(-5.558762e-05 2.1984763e-05 -2.5618277e-21)
(-5.5183315e-05 2.2311434e-05 1.2516205e-24)
(-6.2531721e-05 2.5022885e-05 -5.5032421e-38)
(-6.7316831e-05 2.7680853e-05 1.2435758e-24)
(-6.2073445e-05 2.5925898e-05 -1.8909671e-24)
(-6.0372521e-05 2.5271338e-05 -2.6116521e-21)
(-5.8241411e-05 2.4468027e-05 -2.641557e-21)
(-5.6777511e-05 2.3901414e-05 -2.6710462e-21)
(-5.5408779e-05 2.3377669e-05 -4.5413238e-29)
(-5.4284442e-05 2.2951989e-05 6.6431797e-25)
(-5.3352876e-05 2.2599496e-05 -2.7455123e-21)
(-5.2510166e-05 2.2282726e-05 1.8367099e-40)
(-5.1761974e-05 2.212676e-05 -2.7885324e-21)
(-5.2905469e-05 2.2747607e-05 8.5049873e-26)
(-5.5555146e-05 2.3921741e-05 -1.396837e-21)
(-5.509703e-05 2.3948863e-05 -2.8180264e-21)
(-5.2786438e-05 2.3074201e-05 1.7404062e-25)
(-5.1722985e-05 2.2642014e-05 2.8850056e-21)
(-5.0505428e-05 2.2161488e-05 -3.5648002e-25)
(-4.9553701e-05 2.1782633e-05 1.4723233e-21)
(-4.8674489e-05 2.1441205e-05 -7.2474655e-25)
(-4.7954486e-05 2.1170004e-05 7.318735e-25)
(-4.7386787e-05 2.0953517e-05 1.5100454e-21)
(-4.6835759e-05 2.0762116e-05 0)
(-4.6569061e-05 2.0847208e-05 1.5296959e-21)
(-4.860317e-05 2.1831926e-05 -1.4693679e-38)
(-5.1384867e-05 2.31316e-05 1.4940894e-24)
(-5.049204e-05 2.2970114e-05 -1.5076812e-24)
(-4.8514626e-05 2.2197359e-05 0)
(-4.7475038e-05 2.1761691e-05 -1.5839715e-21)
(-4.6362684e-05 2.130805e-05 -1.6011526e-21)
(-4.5481089e-05 2.0945702e-05 1.6178539e-21)
(-4.4675926e-05 2.0621724e-05 -1.6334576e-21)
(-4.4000604e-05 2.035985e-05 -1.6114166e-24)
(-4.3475689e-05 2.0161229e-05 1.6270284e-24)
(-4.3058496e-05 1.9998477e-05 -1.6407426e-24)
(-4.2670758e-05 1.9932642e-05 1.6887634e-21)
(-4.3261972e-05 2.0463575e-05 1.6487319e-24)
(-4.6438838e-05 2.1846063e-05 -5.1657467e-41)
(-4.7571776e-05 2.2544228e-05 -6.4652189e-38)
(-4.4720353e-05 2.1453766e-05 -1.7219681e-21)
(-4.4059853e-05 2.1135236e-05 -3.4102992e-24)
(-4.2807175e-05 2.0613454e-05 -3.5352809e-21)
(-4.1989355e-05 2.0259182e-05 1.7462236e-24)
(-4.116344e-05 1.9910842e-05 1.7667512e-24)
(-4.0473442e-05 1.9623137e-05 -1.785694e-24)
(-3.9863963e-05 1.9378675e-05 -1.8472802e-21)
(-3.93806e-05 1.9190068e-05 -1.7632415e-38)
(-3.8999721e-05 1.9037719e-05 -5.0717384e-28)
(-3.8668218e-05 1.8959858e-05 1.8522087e-24)
(-3.8874519e-05 1.9262401e-05 2.7921916e-29)
(-4.0703088e-05 2.0109083e-05 -9.4787531e-22)
(-4.1576779e-05 2.0593423e-05 0)
(-3.9804172e-05 1.9958754e-05 -2.8698593e-42)
(-3.9523766e-05 1.9844389e-05 9.5865823e-25)
(-3.8898477e-05 1.9628983e-05 9.9135751e-22)
(-3.8697673e-05 1.9593266e-05 -1.0020478e-21)
(-3.8626577e-05 1.9627412e-05 1.008664e-21)
(-3.8826078e-05 1.9798536e-05 -2.3509887e-38)
(-3.9383677e-05 2.0146445e-05 -2.0278095e-21)
(-4.0387048e-05 2.0661895e-05 -1.1838726e-27)
(-4.1930195e-05 2.1343222e-05 2.9387359e-39)
(-4.5365516e-05 2.374827e-05 9.7028929e-22)
(-5.4251213e-05 2.844188e-05 9.1938619e-22)
(-6.2691727e-05 3.3161428e-05 -1.1754944e-38)
(-6.6725599e-05 4.5999714e-05 -7.5004295e-22)
(-3.2891152e-05 -3.3445704e-06 -8.7677404e-24)
(-2.9757901e-05 -2.8068022e-06 4.3971178e-24)
(-3.1013294e-05 -2.9046696e-06 9.0127395e-21)
(-3.159048e-05 -2.835923e-06 -4.4024793e-24)
(-3.0203108e-05 -2.2263257e-06 -4.5026306e-21)
(-2.8254355e-05 -1.8640911e-06 -4.5245766e-21)
(-2.8744047e-05 -1.8105237e-06 -2.2642938e-37)
(-2.761577e-05 -1.4570346e-06 -4.5260613e-21)
(-2.6329655e-05 -1.2149936e-06 4.4258818e-24)
(-2.5791189e-05 -1.0740805e-06 -2.2722414e-21)
(-2.5029008e-05 -9.5814162e-07 4.5434032e-21)
(-2.4931489e-05 -9.4975455e-07 -2.2794635e-21)
(-2.4802318e-05 -9.1231323e-07 4.4356023e-24)
(-2.4516374e-05 -8.7795716e-07 4.5415636e-21)
(-2.4378698e-05 -8.5540296e-07 -2.2702624e-21)
(-2.4195643e-05 -8.3641907e-07 2.2708138e-21)
(-2.4115486e-05 -8.3227118e-07 2.2201489e-24)
(-2.4127617e-05 -8.4176289e-07 4.5473231e-21)
(-2.4250618e-05 -8.5270735e-07 -2.2737555e-21)
(-2.4232767e-05 -8.4240391e-07 -2.220555e-24)
(-2.4420901e-05 -8.473242e-07 -2.27168e-21)
(-2.4253565e-05 -7.8693671e-07 -4.7282276e-39)
(-2.4329275e-05 -7.7607437e-07 -2.2743421e-21)
(-2.4057267e-05 -6.7983258e-07 3.2142424e-40)
(-2.3941682e-05 -6.5716509e-07 1.5938929e-40)
(-2.3708677e-05 -5.6200266e-07 -2.2219379e-24)
(-2.3548527e-05 -5.4235295e-07 4.44506e-24)
(-2.3342181e-05 -4.5613628e-07 -2.2227039e-24)
(-2.3207971e-05 -4.4346058e-07 -1.1394427e-21)
(-2.3010209e-05 -3.6374957e-07 -1.2388322e-29)
(-2.2900596e-05 -3.5836393e-07 1.1397775e-21)
(-2.2739179e-05 -2.8635694e-07 1.1386846e-21)
(-2.2633871e-05 -2.8488132e-07 1.1389315e-21)
(-2.2541398e-05 -2.2484448e-07 -5.6947207e-22)
(-2.2457278e-05 -2.2065133e-07 5.6956772e-22)
(-2.2387894e-05 -1.6476255e-07 -5.6957235e-22)
(-2.2290468e-05 -1.5254295e-07 -4.3047889e-42)
(-2.2209609e-05 -9.1646044e-08 2.0089007e-38)
(-2.199139e-05 -6.5984914e-08 -1.6904066e-38)
(-2.1934284e-05 -1.0181309e-08 -2.7823123e-25)
(-2.1594588e-05 2.9053218e-08 7.151835e-23)
(-2.1560087e-05 6.563812e-08 -8.6973853e-27)
(-2.1263771e-05 1.0730634e-07 8.6983495e-27)
(-2.1227766e-05 1.2720756e-07 -1.7500653e-38)
(-2.1022137e-05 1.6602686e-07 1.1479437e-41)
(-2.1034878e-05 1.7785913e-07 -5.6969262e-22)
(-2.0802453e-05 2.2377379e-07 -5.5689144e-25)
(-2.089986e-05 2.2931055e-07 5.5694104e-25)
(-2.0614241e-05 2.9838981e-07 5.569654e-25)
(-2.0503523e-05 3.0027126e-07 -1.1141175e-24)
(-2.0333881e-05 3.7214269e-07 1.1408772e-21)
(-1.9984381e-05 3.7764731e-07 1.1144676e-24)
(-1.9904335e-05 4.3093584e-07 1.5963179e-29)
(-1.9567373e-05 4.4202528e-07 2.2819104e-21)
(-1.9500473e-05 4.7549929e-07 -1.1141772e-29)
(-1.927636e-05 4.9021523e-07 -2.2835178e-21)
(-1.9187774e-05 5.1566008e-07 2.2837177e-21)
(-1.8989863e-05 5.3513549e-07 2.283955e-21)
(-1.8886671e-05 5.6170244e-07 -1.8367099e-40)
(-1.8593863e-05 5.8937673e-07 -2.2844498e-21)
(-1.8441105e-05 6.1462822e-07 2.2313033e-24)
(-1.805937e-05 6.498126e-07 -2.2315425e-24)
(-1.7808768e-05 6.6887172e-07 -2.2879627e-21)
(-1.7369508e-05 7.0720439e-07 -2.2860908e-21)
(-1.6975171e-05 7.165672e-07 2.2332662e-24)
(-1.645365e-05 7.5129427e-07 4.5917748e-40)
(-1.592537e-05 7.4624224e-07 4.5767872e-21)
(-1.5313224e-05 7.5912734e-07 -5.8995123e-37)
(-1.468749e-05 7.2801779e-07 -4.5783058e-21)
(-1.422879e-05 7.1085541e-07 4.5798135e-21)
(-1.3769773e-05 6.6670284e-07 4.5839241e-21)
(-1.3322931e-05 6.1851402e-07 4.9113623e-37)
(-1.3189175e-05 5.6695112e-07 -4.5823233e-21)
(-1.2674941e-05 4.973251e-07 -4.4802036e-24)
(-1.2882644e-05 4.2450765e-07 -2.294494e-21)
(-1.2414901e-05 3.6002915e-07 -4.5935703e-21)
(-1.2652678e-05 2.2258854e-07 1.1563056e-21)
(-1.3047871e-05 1.8322601e-07 -4.4819678e-24)
(-1.2733658e-05 1.6392468e-08 -1.4315207e-29)
(-1.3751788e-05 -7.4893324e-08 -6.1231959e-32)
(-1.333316e-05 -2.0027408e-07 4.4817599e-24)
(-1.4245132e-05 -4.1223707e-07 -8.9591069e-24)
(-1.5177524e-05 -5.4028619e-07 4.4795986e-24)
(-1.5087289e-05 -7.332817e-07 -4.4783624e-24)
(-1.6400175e-05 -9.8860299e-07 8.9523287e-24)
(-1.7379848e-05 -1.1941059e-06 -4.4754546e-24)
(-1.7633833e-05 -1.4049473e-06 4.4740475e-24)
(-1.8936682e-05 -1.7316706e-06 9.1488943e-21)
(-2.0290354e-05 -2.0337371e-06 4.468376e-24)
(-2.1320478e-05 -2.3521472e-06 9.149616e-21)
(-2.2699704e-05 -2.7228166e-06 9.1437262e-21)
(-2.4667908e-05 -3.1857692e-06 9.136073e-21)
(-2.6735287e-05 -3.7071869e-06 9.1260006e-21)
(-3.0171888e-05 -4.2959417e-06 9.1155698e-21)
(-3.1015376e-05 -4.5963021e-06 -9.1091703e-21)
(-3.6969929e-05 -5.5860672e-06 8.8691152e-24)
(-4.202072e-05 -7.6664548e-06 1.801696e-20)
(-8.260969e-05 -9.8690193e-06 1.5869174e-37)
(-3.9358307e-05 7.9769425e-06 -1.0761972e-42)
(-0.00011232758 -8.5687345e-05 1.4693679e-38)
(-7.9881973e-05 -5.3169711e-05 4.5371524e-23)
(-7.2420664e-05 -4.4050194e-05 -4.9713666e-23)
(-7.7878476e-05 -4.6124331e-05 1.4693679e-39)
(-9.2373506e-05 -5.5623195e-05 -8.4804341e-40)
(-0.00010042903 -5.8292296e-05 -5.4148504e-38)
(-0.00017259974 -0.00010905288 0)
(-0.00011394104 -5.6612678e-05 -9.3031936e-22)
(4.119572e-05 2.5337656e-05 -4.9799232e-23)
(1.2858818e-05 8.9428957e-06 -3.2188262e-21)
(-5.9198026e-06 1.6758409e-06 4.5472947e-23)
(-6.9721508e-07 7.1501544e-07 -4.4081038e-39)
(2.554238e-05 8.0750294e-06 2.4349006e-21)
(1.8999902e-05 6.9684051e-06 3.4773997e-23)
(1.138992e-05 4.9883178e-06 -3.2439398e-23)
(3.2761099e-06 3.0633631e-06 -1.5841623e-39)
(-5.5768174e-06 9.4957554e-07 -2.9387359e-39)
(-1.4459642e-05 -1.102461e-06 -3.3004457e-21)
(-2.1736536e-05 -2.7155148e-06 0)
(-2.6958065e-05 -3.7233395e-06 -5.6854617e-21)
(-2.757107e-05 -3.5924775e-06 -1.5535716e-27)
(-2.879655e-05 -3.8186662e-06 -9.8307791e-21)
(-3.1337453e-05 -4.399193e-06 9.0181424e-24)
(-3.5604315e-05 -5.2305593e-06 -8.5271019e-24)
(-3.3250732e-05 -4.1167615e-06 -4.1424967e-21)
(-3.0062977e-05 -3.488731e-06 -7.5491515e-24)
(-3.2197783e-05 -3.9746525e-06 2.8491963e-38)
(-3.4866357e-05 -4.4110789e-06 6.9168174e-24)
(-5.393086e-06 -4.6172489e-05 -5.9172777e-22)
(-4.5240265e-06 -3.8560583e-05 3.8322324e-23)
(-6.0852944e-06 -4.4861008e-05 -3.705039e-23)
(-7.0542082e-06 -5.0467415e-05 5.3070186e-22)
(-9.0215164e-06 -6.3885534e-05 5.3348829e-22)
(-1.2774489e-05 -6.2306371e-05 3.3119248e-23)
(-1.223155e-05 -5.6204699e-05 1.0564334e-21)
(-1.3955876e-05 -6.0728154e-05 6.5954874e-23)
(-1.5822358e-05 -6.8060631e-05 -3.1628188e-23)
(-1.8038884e-05 -7.6705594e-05 -1.4693679e-39)
(-2.1353288e-05 -8.7438256e-05 8.6181727e-22)
(-2.7452011e-05 -0.00010965828 -7.4856276e-22)
(-3.8261529e-05 -0.00012366921 7.6736824e-22)
(-3.7405147e-05 -9.1918688e-05 4.2430516e-27)
(-3.0521791e-05 -6.5939275e-05 -8.9683102e-44)
(-3.4511103e-05 -7.1016307e-05 2.6448623e-38)
(-3.9468353e-05 -8.1184689e-05 1.6895561e-21)
(-4.6321989e-05 -9.5326565e-05 2.4817594e-23)
(-5.2885087e-05 -0.0001051273 3.2326095e-38)
(-5.1387414e-05 -9.4447141e-05 1.5669878e-21)
(-4.9866969e-05 -8.6916619e-05 5.0595431e-23)
(-5.4836478e-05 -9.3194078e-05 -4.7904124e-23)
(-6.2623582e-05 -0.00010518318 2.4110043e-26)
(-7.2720092e-05 -0.00011954619 -3.9914687e-23)
(-9.0614636e-05 -0.00014808023 -1.0783483e-21)
(-0.00011170026 -0.00016933158 1.6338245e-26)
(-8.9403688e-05 -0.00011408475 -1.1568924e-21)
(-5.5623085e-05 -5.7443942e-05 4.9142172e-23)
(-5.9316299e-05 -5.7899143e-05 1.5464648e-21)
(-7.1738673e-05 -7.1559297e-05 7.4011563e-27)
(-8.1814108e-05 -8.1220955e-05 4.0976142e-23)
(-0.00011087126 -0.00011528274 3.6418533e-23)
(-0.0001029256 -9.9419565e-05 -3.6680574e-23)
(-6.7118806e-05 -5.4995829e-05 -2.9611053e-21)
(-6.1016084e-05 -4.5599356e-05 -1.6167646e-21)
(-6.910832e-05 -5.142008e-05 -1.5449366e-21)
(-8.048747e-05 -6.1098032e-05 -4.381061e-23)
(-9.0226687e-05 -6.7399471e-05 1.2314867e-21)
(-0.00012152527 -9.5079453e-05 -1.0916013e-21)
(1.002383e-06 -4.7196698e-05 -3.3704371e-22)
(1.0428366e-06 -3.2055546e-05 4.40773e-23)
(1.0875584e-06 -2.7366832e-05 3.1297265e-27)
(9.8799951e-07 -2.1960387e-05 -9.1359043e-23)
(9.486713e-07 -1.8444841e-05 4.6201496e-23)
(9.2946973e-07 -1.5957894e-05 -7.4999084e-22)
(1.0334499e-06 -1.2428623e-05 -8.1107417e-22)
(6.2151666e-07 -7.4684921e-06 8.6917455e-22)
(2.0114542e-07 -4.4048064e-06 -4.4081038e-39)
(-2.9172559e-07 -1.0838612e-06 5.8065138e-23)
(-6.5139717e-07 1.6985515e-06 8.5528306e-22)
(-1.1116673e-06 4.41481e-06 -4.0591289e-38)
(-1.6816368e-06 7.3656838e-06 7.1472847e-22)
(-2.4330842e-06 1.0590783e-05 6.2252696e-22)
(-3.8802176e-06 1.3806666e-05 -5.2128647e-22)
(-4.4673046e-06 2.0331195e-05 -4.4007947e-22)
(-6.4101497e-06 2.30441e-05 2.3509887e-38)
(-7.9931275e-06 2.1890388e-05 4.2426316e-22)
(-9.2219213e-06 2.2731185e-05 2.628776e-23)
(-1.0324123e-05 2.452349e-05 9.7345626e-39)
(-1.1397179e-05 2.6560889e-05 4.7118576e-27)
(-1.2484326e-05 2.8760079e-05 -3.1876636e-22)
(-1.3716876e-05 3.1313773e-05 -5.635059e-27)
(-1.5376094e-05 3.3918459e-05 -7.1071413e-27)
(-1.6661037e-05 3.865617e-05 -1.4436377e-23)
(-1.8235156e-05 4.145525e-05 2.9875871e-23)
(-1.9554524e-05 3.9586247e-05 -5.1242297e-29)
(-2.0602504e-05 3.9060586e-05 2.1565352e-22)
(-2.1726139e-05 3.9868539e-05 -2.0384439e-22)
(-2.2963288e-05 4.1250164e-05 -1.2728161e-23)
(-2.4312447e-05 4.3053753e-05 1.4693679e-39)
(-2.5835894e-05 4.5290032e-05 -1.754571e-22)
(-2.7600847e-05 4.7961163e-05 -1.4693679e-39)
(-2.9656769e-05 5.1217473e-05 1.4693679e-39)
(-3.2604971e-05 5.4854927e-05 -1.4177693e-22)
(-3.5553141e-05 6.1507435e-05 1.2753178e-22)
(-3.9950118e-05 7.0610578e-05 -1.2736967e-22)
(-4.2843966e-05 7.0127187e-05 -1.1754944e-38)
(-4.0851091e-05 5.6680737e-05 3.2113503e-22)
(-3.8940144e-05 4.9506086e-05 1.1301949e-23)
(-3.8079347e-05 4.6451862e-05 4.2724989e-27)
(-3.8282049e-05 4.4442682e-05 1.2172745e-23)
(-3.9364884e-05 4.3737598e-05 1.7844705e-22)
(-4.0978331e-05 4.4337924e-05 -2.9387359e-39)
(-4.3049636e-05 4.5811356e-05 -1.6166528e-22)
(-4.5502109e-05 4.8038369e-05 -1.7190333e-22)
(-4.8678104e-05 5.0474174e-05 -1.5008836e-22)
(-5.2124307e-05 5.5615021e-05 8.7138817e-24)
(-5.5327205e-05 6.3810172e-05 1.396921e-22)
(-5.3877695e-05 6.1012875e-05 -3.3809882e-22)
(-4.8758783e-05 4.879748e-05 1.9484127e-22)
(-4.4984467e-05 4.1981117e-05 2.173804e-22)
(-4.2542742e-05 3.7798194e-05 -4.7003539e-22)
(-4.1421179e-05 3.4848244e-05 -2.4742784e-22)
(-4.1443905e-05 3.3234852e-05 -2.9387359e-39)
(-4.2352196e-05 3.2850283e-05 -5.1563349e-22)
(-4.386603e-05 3.3336483e-05 -2.2617782e-22)
(-4.5694182e-05 3.4523838e-05 -2.3036611e-22)
(-4.78005e-05 3.6174416e-05 4.3681766e-22)
(-5.0084671e-05 3.8225129e-05 -2.0617028e-22)
(-5.2516678e-05 4.060345e-05 -1.2151228e-23)
(-5.5825497e-05 4.2461647e-05 2.2718089e-23)
(-5.8840613e-05 5.0052694e-05 -1.1129362e-23)
(-6.0909339e-05 5.6402811e-05 4.4081038e-39)
(-5.2264535e-05 4.2779145e-05 1.0795352e-22)
(-4.5559581e-05 3.4433265e-05 1.7877514e-23)
(-4.022938e-05 2.8822172e-05 1.6170974e-22)
(-3.6563509e-05 2.3997192e-05 3.3710018e-22)
(-3.450376e-05 2.0571353e-05 2.4409744e-23)
(-3.3420841e-05 1.8598427e-05 1.934115e-22)
(-3.3144864e-05 1.7549555e-05 2.659213e-23)