/*--------------------------------*- C++ -*----------------------------------*\
| =========                 |                                                 |
| \\      /  F ield         | OpenFOAM: The Open Source CFD Toolbox           |
|  \\    /   O peration     | Version:  v2006                                 |
|   \\  /    A nd           | Website:  www.openfoam.com                      |
|    \\/     M anipulation  |                                                 |
\*---------------------------------------------------------------------------*/
FoamFile
{
    version     2.0;
    format      ascii;
    class       volScalarField;
    location    "10000";
    object      yPlus;
}
// * * * * * * * * * * * * * * * * * * * * * * * * * * * * * * * * * * * * * //

dimensions      [0 0 0 0 0 0 0];


internalField   uniform 0;

boundaryField
{
    Side
    {
        type            empty;
    }
    Ground
    {
        type            calculated;
        value           nonuniform List<scalar> 
645
(
0.73727738
0.73636856
0.73585266
0.73653221
0.73835745
0.74159752
0.74635225
0.75280447
0.76118118
0.77160007
0.78400319
0.79838921
0.8148168
0.83272401
0.85229249
0.87671416
0.90438381
0.91866569
0.95107832
1.0984452
1.1205568
1.1218977
1.093523
1.0682507
1.0434885
1.0198606
0.99713023
0.97529022
0.95427665
0.93404648
0.91454641
0.89571508
0.87751559
0.85994711
0.84299789
0.82666117
0.81094682
0.795874
0.78147353
0.76777903
0.75502269
0.74388189
1.1364434
1.1394692
1.1415014
1.1430595
1.1443058
1.1452813
1.1460153
1.1465526
1.1469368
1.1471947
1.1473412
1.1474052
1.147387
1.1472924
1.147132
1.1469243
1.1466699
1.1463623
1.1459947
1.1455681
1.1450827
1.144523
1.1438706
1.1431052
1.1422075
1.1411509
1.1398959
1.1384094
1.1366456
1.1345541
1.1320861
1.1291781
1.125764
1.1217727
1.1171289
1.1117565
1.1055686
1.0984794
1.0903999
1.0812404
1.0709097
1.0593172
1.0463852
1.0321012
1.0163009
0.99886434
0.97982872
0.95913659
0.93671994
0.91254103
0.88657051
0.85877327
0.82911936
0.79757245
0.76409681
0.72862627
0.69106831
0.65116971
0.60887799
0.56387413
0.5156436
0.46337936
0.40570566
0.34007499
0.26002215
0.14966308
0.13747522
0.23705202
0.31320536
0.36989202
0.42523992
0.46552045
0.49958513
0.52606768
0.55154422
0.57568835
0.59808128
0.61910946
0.63840962
0.65616607
0.67260305
0.68785067
0.70189855
0.71455619
0.72591781
0.73620506
0.74572888
0.75459701
0.76277016
0.7705036
0.77793988
0.78480986
0.79107012
0.79697253
0.8026126
0.8079426
0.8129438
0.81762704
0.82206308
0.82629322
0.83025777
0.83391184
0.83733474
0.84048758
0.92335179
0.90604883
0.88919264
0.88169958
0.87341903
0.86692752
0.86042127
0.85496978
0.85008412
0.84596849
0.84229977
0.83901066
0.8361023
0.83340454
0.83108281
0.82894126
0.82707409
0.82537047
0.82377406
0.82228628
0.8208657
0.81956061
0.8182571
0.81708206
0.81592936
0.81481037
0.81381452
0.81277349
0.81183423
0.81098311
0.81005021
0.80921639
0.8084338
0.80757534
0.80677698
0.80600303
0.80517924
0.80435692
0.80355877
0.80272914
0.80182219
0.80097697
0.80011783
0.79915605
0.79820689
0.79728506
0.79632262
0.79523391
0.79424214
0.79326711
0.79220473
0.79101262
0.7898722
0.78869406
0.78738261
0.78592955
0.78448371
0.78296895
0.78128813
0.77945414
0.7775743
0.7756046
0.77345509
0.77113593
0.76869564
0.76616033
0.76344786
0.7605624
0.75739925
0.75420073
0.75089423
0.74740155
0.7437135
0.73981366
0.73588063
0.73173457
0.72737291
0.72279885
0.71805338
0.71323723
0.70825596
0.70306291
0.69759732
0.69189946
0.68597393
0.6797888
0.67333691
0.66649697
0.65932966
0.65198255
0.64444307
0.63687542
0.62926788
0.62126573
0.61303861
0.60430761
0.59515129
0.58611721
0.57745353
0.56938356
0.56140652
0.55245023
0.5420524
0.53056789
0.51920087
0.50923674
0.50062639
0.4921515
0.48245741
0.47057715
0.45606719
0.44090912
0.42733635
0.41675805
0.40933095
0.4027729
0.39384171
0.38093436
0.36328726
0.34348141
0.32542075
0.311445
0.30373226
0.29884127
0.29374337
0.28433126
0.26880576
0.2493685
0.22679626
0.20532295
0.18738339
0.17439565
0.16756628
0.16325938
0.16065245
0.15957541
0.16262256
0.16954475
0.1802915
0.19295787
0.20544497
0.21722941
0.22598396
0.23272146
0.23884175
0.24630538
0.2576838
0.27228181
0.2885905
0.30292945
0.31290243
0.31962597
0.32467372
0.33095506
0.34098901
0.35439621
0.36924641
0.38250647
0.39237251
0.39979982
0.40649329
0.41472656
0.42572648
0.43846696
0.45135665
0.46249252
0.47122366
0.4789007
0.48715589
0.49705631
0.50857547
0.52048349
0.53150795
0.54111447
0.54974377
0.55870636
0.56892002
0.58007212
0.59145261
0.60247779
0.61273669
0.62254569
0.63243296
0.64321507
0.65486228
0.66624808
0.67691879
0.68712391
0.69760485
0.70850508
0.71935777
0.72976103
0.73982717
0.74987653
0.75988724
0.76947143
0.77862492
0.78743402
0.79576187
0.80342463
0.81057301
0.81781057
0.82514245
0.83210886
0.8386549
0.84478484
0.85062692
0.85624908
0.86143733
0.86621864
0.87060313
0.87460704
0.87814566
0.88115123
0.88429865
0.88785037
0.89095436
0.89372363
0.89616131
0.89830334
0.90005146
0.90127203
0.90286732
0.90546443
0.90790697
0.90999622
0.91183785
0.91342563
0.91474069
0.91561757
0.91652882
0.91854882
0.92104872
0.92300867
0.92483155
0.92638624
0.92776354
0.92883833
0.92948337
0.93085356
0.93316601
0.93494327
0.93663609
0.9380803
0.93937183
0.94048491
0.94127611
0.94209064
0.9440353
0.946608
0.94869421
0.95072427
0.95253442
0.95421909
0.95573058
0.95694803
0.9583938
0.96073272
0.96325384
0.96548697
0.96760899
0.9695507
0.97136219
0.97302053
0.9744447
0.97596559
0.97805437
0.98025613
0.98221334
0.98405981
0.98574225
0.98730017
0.9887343
0.98997515
0.99113084
0.9928646
0.99500082
0.99680132
0.99854071
1.0001099
1.0015548
1.0028833
1.0040763
1.0050575
1.0062779
1.007971
1.0095309
1.0109678
1.0122734
1.0134483
1.0145
1.0154471
1.016264
1.0168949
1.0177773
1.01899
1.0199411
1.020829
1.0215791
1.0222198
1.0227477
1.0231815
1.0234996
1.0236535
1.0240484
1.0247831
1.025295
1.0257422
1.0260649
1.0262869
1.0264044
1.0264233
1.0263415
1.0261431
1.025964
1.0259355
1.025871
1.0256918
1.025421
1.02507
1.0246435
1.0240796
1.0233446
1.0225315
1.0217198
1.0210137
1.0203922
1.0196174
1.0187525
1.0177992
1.0167656
1.0156467
1.0144537
1.0131893
1.0118471
1.0104152
1.0090649
1.0078579
1.0065517
1.0051998
1.0037567
1.0022116
1.0005819
0.99887101
0.99705288
0.99512765
0.99319599
0.99132026
0.98944347
0.98754375
0.98557729
0.9835717
0.98152854
0.97940136
0.97717075
0.97487636
0.97253621
0.9701438
0.96770097
0.96524042
0.96281699
0.96038189
0.95788364
0.95531216
0.95267995
0.94999809
0.94726663
0.94448626
0.94165442
0.93877692
0.93584703
0.93283955
0.92980247
0.92683813
0.92389481
0.92090926
0.91787382
0.91480269
0.91169189
0.90854957
0.90537868
0.90219164
0.89898121
0.89572843
0.89242376
0.8890646
0.88567859
0.88234538
0.87908624
0.87575786
0.87232522
0.86884602
0.8653388
0.86180429
0.85824916
0.8546744
0.85107317
0.8474444
0.84381363
0.68118533
0.70824004
0.73452456
0.75957129
0.78285921
0.80417402
0.82375875
0.84225912
0.86030692
0.87816703
0.89572232
0.91264521
0.92861395
0.94341716
0.95691389
0.96897526
0.97939053
0.98782758
0.99357817
0.99549311
0.99212987
0.98283412
0.96740974
0.94254988
0.90254958
0.84476859
0.77654853
0.72127004
0.70473484
0.72279936
0.75143513
0.78102035
0.81160311
0.84272232
0.87403386
0.90524119
0.93584789
0.96520087
0.992589
1.0174433
1.0392365
1.0574351
1.0715294
1.0812518
1.0865585
1.0873791
1.0839729
1.0767991
1.0663624
1.0533547
1.0386853
1.0232199
1.0075778
0.99241555
0.9783457
0.96617633
0.95616475
0.94762655
0.94329517
0.9403563
0.92831104
0.65264316
0.62483108
0.60048309
0.5790818
0.56020241
0.54348825
0.52862082
0.51534434
0.50346247
0.49279536
0.48319706
0.47453686
0.46670133
0.45959302
0.45312962
0.44723887
0.44185796
0.43693299
0.43241763
0.42827143
0.42445777
0.42094261
0.41769792
0.41470132
0.41192558
0.40935993
0.406976
0.40477691
0.40270162
0.40082545
0.39900451
0.39744102
0.39574964
0.39455911
0.39279037
0.3922113
0.38980976
0.39053502
0.38753125
)
;
    }
    Inlet
    {
        type            calculated;
        value           uniform 0;
    }
    Airfoil
    {
        type            calculated;
        value           nonuniform List<scalar> 
646
(
0.50589334
0.5178607
1.1438922
0.87723755
0.97609478
0.90773493
0.93050555
0.89200638
0.87037593
0.83781385
0.82532782
0.80736758
0.80041297
0.78768144
0.77948565
0.77035328
0.76022552
0.75326995
0.74433218
0.73726634
0.72838836
0.7214781
0.71313735
0.7043777
0.69800022
0.68874091
0.68200721
0.67515827
0.66586624
0.65994656
0.65290019
0.64389825
0.63768026
0.63069945
0.62210177
0.61520975
0.60817632
0.60044529
0.59256391
0.58629316
0.57878969
0.57107771
0.564047
0.55814632
0.55006487
0.54326509
0.5364134
0.5312169
0.52280851
0.51636886
0.50941605
0.50430888
0.49637967
0.48967627
0.48278575
0.47716807
0.47008161
0.46272434
0.45612405
0.44933218
0.44330666
0.43499003
0.4290341
0.42073024
0.41565238
0.4068986
0.4005271
0.39247247
0.38434558
0.37943034
0.36941286
0.36373357
0.35298644
0.3453541
0.33877471
0.32955504
0.32188681
0.3090806
0.3007934
0.29218053
0.28235053
0.27205529
0.25567972
0.2442551
0.23364739
0.21997954
0.20755812
0.18381787
0.16254374
0.15481295
0.12971937
0.12586552
0.12088082
0.15504336
0.1582747
0.18367724
0.19334518
0.22044631
0.25841199
0.27208393
0.27921775
0.29624451
0.29876435
0.32907709
0.35948002
0.3580096
0.36915409
0.3775209
0.38591215
0.41023249
0.42908493
0.430426
0.43909962
0.44548657
0.45438584
0.47741791
0.49295763
0.49418497
0.50123381
0.50695873
0.51360249
0.53831209
0.55678463
0.55533388
0.56071794
0.56679759
0.56668204
0.59227028
0.61965777
0.61415792
0.61838556
0.62246305
0.62268213
0.63835005
0.66535124
0.66999579
0.66982116
0.67262331
0.6753903
0.67678407
0.69987629
0.72173536
0.71640198
0.71857033
0.72080701
0.72132623
0.7298592
0.75212192
0.76202417
0.75951582
0.76111052
0.76314714
0.76283394
0.77355426
0.79330398
0.79738702
0.79662454
0.79814755
0.80009914
0.79988299
0.8099226
0.82755921
0.83069679
0.8302823
0.83186635
0.83383523
0.83325124
0.84376429
0.86704022
0.87442092
0.87165632
0.87238507
0.87391089
0.87325767
0.87812288
0.90915121
0.93133031
0.92298017
0.92222224
0.9227905
0.92320503
0.91664715
0.94456599
0.98392098
0.97646414
0.97360575
0.97248712
0.97274618
0.97143665
0.97540696
0.99755552
1.012229
1.0065001
1.0062402
1.0064531
1.0072404
1.0073272
1.0118651
1.0203177
1.0227497
1.0225915
1.0233975
1.024827
1.0255747
1.0224617
1.0389938
1.0646784
1.0628661
1.0588745
1.0564933
1.0559842
1.0521445
1.0351294
1.1015509
1.1926972
1.1763898
1.1602593
1.148849
1.1428012
1.1351234
1.1024296
1.1854378
1.3409341
1.346598
1.3035863
1.2826261
1.2662381
1.2526537
1.2230252
1.2479286
1.4236344
1.5106706
1.4328496
1.4102097
1.3867448
1.3736561
1.3543848
1.2992341
1.4428048
1.5952079
1.5120868
1.4858907
1.4576732
1.4384042
1.4209873
1.3842461
1.4007192
1.6076893
1.7040006
1.6011112
1.5733062
1.5409682
1.5201244
1.4998077
1.4567849
1.5215216
1.6916588
1.7100895
1.6369318
1.6084169
1.5805761
1.5608588
1.5427875
1.5104202
1.5546629
1.6799518
1.6909207
1.628974
1.6042819
1.5785555
1.5591139
1.5436153
1.5179827
1.5223402
1.6837311
1.7501631
1.6562858
1.6342031
1.6036368
1.5831303
1.5668624
1.550061
1.5163127
1.623022
1.7342561
1.6830008
1.643067
1.6157975
1.5939127
1.5753129
1.5633234
1.5470279
1.519849
1.6439419
1.7183812
1.6324799
1.6165947
1.5894817
1.572244
1.5559232
1.5471886
1.5323296
1.510273
1.6527963
1.7353772
1.6460314
1.6287285
1.6008307
1.5840825
1.5681138
1.5573911
1.5465624
1.5359428
1.5897588
1.6563861
1.6360594
1.6014172
1.5842971
1.5676725
1.5546513
1.5439965
1.5370744
1.5280091
1.5237515
1.6009041
1.6418022
1.5913546
1.5783486
1.559651
1.5475903
1.5361799
1.5284864
1.5244933
1.5182843
1.5216546
1.6259367
1.6806897
1.6207915
1.6059109
1.5848953
1.5720835
1.5601518
1.5512375
1.5447261
1.5392547
1.535574
1.5596419
1.6005585
1.5956104
1.5689475
1.5596799
1.5478562
1.5396578
1.5323384
1.5272788
1.5243856
1.5217408
1.5244625
1.5638269
1.6069199
1.5937639
1.5689056
1.5581709
1.5460053
1.5372442
1.5295313
1.5238189
1.5204834
1.5188228
1.5181654
1.5356796
1.5944855
1.6065266
1.5647239
1.558502
1.5421671
1.5329226
1.5233482
1.5159904
1.5099646
1.5061084
1.5039983
1.5031612
1.5134974
1.5533384
1.5646349
1.5373146
1.5368762
1.5303193
1.531644
1.5355445
1.5447747
1.5610071
1.5853533
1.6195318
1.6945513
1.85886
2.0106551
2.1450154
1.5717617
1.490068
1.5169243
1.5267441
1.4839778
1.4309037
1.4396444
1.4057613
1.3692624
1.3522725
1.3301112
1.3264082
1.3215588
1.3128179
1.3080549
1.3022147
1.2992649
1.2989257
1.3015156
1.3001912
1.3044548
1.2987664
1.299989
1.2913057
1.287482
1.2799507
1.275039
1.2684041
1.2643069
1.2580571
1.2547347
1.2496235
1.2464927
1.24343
1.2409196
1.2386146
1.2357639
1.2332434
1.2270675
1.225345
1.2157946
1.2148479
1.2065456
1.2056492
1.1999637
1.2005153
1.1941384
1.1971665
1.1894158
1.1865236
1.1822196
1.1724418
1.1707538
1.1613412
1.1600106
1.153943
1.1519808
1.1467469
1.1444169
1.1364363
1.1326498
1.1220356
1.1152073
1.1027631
1.091258
1.0759457
1.0596626
1.0406266
1.0200714
1.0049943
0.98916645
0.97336508
0.96826375
0.94912047
0.9554491
0.93770549
0.94330026
0.95687732
0.94161499
0.97520451
0.95745932
0.98283871
1.0106082
1.0020206
1.0366237
1.0613553
1.0625875
1.0913927
1.1216454
1.1410559
1.1674617
1.2058387
1.2435178
1.3107371
1.3228886
1.427604
1.4775408
2.1171174
1.7767693
3.8139545
3.1291019
2.9200765
2.9997987
3.2572943
3.3602511
4.441414
3.2374537
1.9631313
1.1137649
0.67644037
0.27978811
1.4047577
1.2204405
0.95091782
0.55128081
0.63679782
1.0361886
1.2769909
1.4235831
1.4368477
1.4715711
1.5392965
1.6448824
1.5804466
1.5049141
1.5618899
1.6295807
1.9059774
1.7367685
1.8727024
1.9838367
2.2320547
2.2617779
2.1490805
2.2351632
2.3655298
2.5107479
2.6818866
3.0083312
3.2820178
2.9099712
2.4896694
2.598398
2.783932
3.0246908
3.2034817
3.0743277
2.9755984
3.1005179
3.310096
3.5507171
3.9740004
4.3286908
3.6379417
2.7166009
2.7796849
3.095287
3.3247959
3.951998
3.6999208
2.9010426
2.7386623
2.9392964
3.2157498
3.4277962
4.0587486
1.8681094
1.6449533
1.618025
1.5356771
1.4844546
1.4498078
1.2966836
1.0485649
0.83544789
0.42243932
0.56820003
0.94458995
1.2622151
1.5623497
1.8412476
2.2911932
2.2908066
2.3172576
2.4309933
2.5896519
2.7588525
2.9345865
3.1279059
3.3266112
3.6071352
3.5975182
3.5858492
3.6413976
3.7494125
3.8810329
4.0293135
4.1956953
4.380759
4.5911634
4.825822
5.1597096
5.150721
4.6577493
4.3604815
4.1768132
4.1189291
4.1135984
4.158654
4.2495257
4.3738682
4.5274097
4.6993727
4.9404428
4.7968934
4.3259663
4.0194274
3.8168555
3.6969191
3.6316206
3.6204659
3.6582201
3.7301041
3.8242971
3.9343623
4.0554627
4.1882502
4.3205051
4.4931364
3.8409498
3.4966425
3.2251803
3.0178649
2.853652
2.7455379
2.6880709
2.6716456
2.6909644
2.7314425
2.783878
2.8440307
2.9129949
2.989272
3.0743121
3.174408
3.2886307
3.3833041
)
;
    }
    Outlet
    {
        type            calculated;
        value           uniform 0;
    }
}


// ************************************************************************* //
