/*--------------------------------*- C++ -*----------------------------------*\
| =========                 |                                                 |
| \\      /  F ield         | OpenFOAM: The Open Source CFD Toolbox           |
|  \\    /   O peration     | Version:  v2006                                 |
|   \\  /    A nd           | Website:  www.openfoam.com                      |
|    \\/     M anipulation  |                                                 |
\*---------------------------------------------------------------------------*/
FoamFile
{
    version     2.0;
    format      ascii;
    class       volScalarField;
    location    "10000";
    object      alphat;
}
// * * * * * * * * * * * * * * * * * * * * * * * * * * * * * * * * * * * * * //

dimensions      [1 -1 -1 0 0 0 0];


internalField   nonuniform List<scalar> 
102907
(
3.4878301e-11
3.4890474e-10
3.66623e-09
1.3824874e-08
3.051572e-08
4.9143262e-08
6.5106454e-08
7.6556669e-08
8.3880506e-08
8.824049e-08
9.0721116e-08
9.2090737e-08
9.2830536e-08
9.3222847e-08
9.3426885e-08
9.3530179e-08
9.3580366e-08
9.3602944e-08
9.3611394e-08
9.3612737e-08
9.3610623e-08
9.36069e-08
9.3602528e-08
9.3597965e-08
9.3593466e-08
9.3589133e-08
9.358504e-08
9.3581198e-08
9.3577635e-08
9.3574347e-08
9.357135e-08
9.3568634e-08
9.3566212e-08
9.3564075e-08
9.3562236e-08
9.3560673e-08
9.35594e-08
9.3558391e-08
9.3557646e-08
9.3557129e-08
9.3556877e-08
9.3557021e-08
9.3557652e-08
9.3558658e-08
9.3559994e-08
9.3561612e-08
9.3563527e-08
9.3565713e-08
9.3568186e-08
9.3570926e-08
9.357395e-08
9.357724e-08
9.3580812e-08
9.3584655e-08
9.3588783e-08
9.3593185e-08
9.3597876e-08
9.3602845e-08
9.3608105e-08
9.3613647e-08
9.3619486e-08
9.3625615e-08
9.3632047e-08
9.3638782e-08
9.3645832e-08
9.36532e-08
9.3660899e-08
9.3668938e-08
9.367733e-08
9.3686092e-08
9.3695235e-08
9.3704788e-08
9.3714763e-08
9.3725199e-08
9.3736114e-08
9.3747563e-08
9.3759575e-08
9.3772236e-08
9.3785599e-08
9.3799817e-08
9.3814977e-08
3.6362044e-11
4.4923514e-10
4.5542955e-09
1.6391967e-08
3.4692665e-08
5.3875376e-08
6.9351382e-08
7.9871636e-08
8.6299997e-08
8.998185e-08
9.200809e-08
9.309421e-08
9.3664995e-08
9.3959711e-08
9.4108663e-08
9.4181306e-08
9.4214702e-08
9.4228194e-08
9.4231742e-08
9.4230436e-08
9.422685e-08
9.4222278e-08
9.4217367e-08
9.4212435e-08
9.4207641e-08
9.4203062e-08
9.4198731e-08
9.4194675e-08
9.419089e-08
9.4187393e-08
9.4184174e-08
9.418125e-08
9.4178603e-08
9.4176254e-08
9.4174182e-08
9.4172405e-08
9.4170898e-08
9.4169669e-08
9.4168682e-08
9.4167924e-08
9.4167357e-08
9.4167241e-08
9.4167629e-08
9.4168406e-08
9.4169478e-08
9.417084e-08
9.4172473e-08
9.4174388e-08
9.4176564e-08
9.4179021e-08
9.4181734e-08
9.4184723e-08
9.4187969e-08
9.4191496e-08
9.4195281e-08
9.4199348e-08
9.420368e-08
9.4208296e-08
9.4213179e-08
9.4218348e-08
9.4223787e-08
9.4229519e-08
9.4235526e-08
9.4241835e-08
9.4248428e-08
9.4255337e-08
9.4262543e-08
9.4270082e-08
9.4277937e-08
9.4286148e-08
9.4294702e-08
9.4303643e-08
9.431296e-08
9.4322708e-08
9.4332878e-08
9.434354e-08
9.4354695e-08
9.4366445e-08
9.4378809e-08
9.4391965e-08
9.4405967e-08
3.839787e-11
5.8037383e-10
5.6357743e-09
1.9329568e-08
3.9189551e-08
5.8682098e-08
7.345659e-08
8.2965391e-08
8.8513617e-08
9.1569785e-08
9.3195749e-08
9.404113e-08
9.4472738e-08
9.4689276e-08
9.4795171e-08
9.4844275e-08
9.4865046e-08
9.4871827e-08
9.4871798e-08
9.4868565e-08
9.48639e-08
9.4858694e-08
9.4853366e-08
9.4848135e-08
9.4843091e-08
9.4838293e-08
9.4833752e-08
9.4829492e-08
9.4825505e-08
9.4821807e-08
9.4818387e-08
9.4815259e-08
9.4812408e-08
9.4809852e-08
9.4807572e-08
9.4805581e-08
9.4803857e-08
9.4802405e-08
9.480119e-08
9.4800204e-08
9.4799405e-08
9.4798843e-08
9.4799124e-08
9.4799665e-08
9.4800485e-08
9.4801581e-08
9.480295e-08
9.480459e-08
9.4806488e-08
9.4808652e-08
9.4811069e-08
9.4813753e-08
9.4816692e-08
9.4819898e-08
9.4823361e-08
9.4827091e-08
9.4831079e-08
9.4835336e-08
9.4839851e-08
9.4844641e-08
9.484969e-08
9.4855018e-08
9.486061e-08
9.4866489e-08
9.4872638e-08
9.4879084e-08
9.488581e-08
9.4892847e-08
9.4900177e-08
9.4907839e-08
9.4915813e-08
9.4924146e-08
9.4932816e-08
9.4941881e-08
9.4951319e-08
9.4961205e-08
9.4971518e-08
9.4982371e-08
9.4993755e-08
9.5005871e-08
9.5018747e-08
4.1295543e-11
7.5175724e-10
6.9468289e-09
2.2666762e-08
4.3981333e-08
6.3505838e-08
7.738003e-08
8.5825788e-08
9.0529065e-08
9.3019418e-08
9.4299321e-08
9.4944023e-08
9.5263128e-08
9.5418243e-08
9.5491149e-08
9.5522449e-08
9.5533931e-08
9.5535867e-08
9.5533282e-08
9.5528676e-08
9.5523228e-08
9.5517548e-08
9.5511891e-08
9.5506414e-08
9.5501154e-08
9.5496163e-08
9.5491433e-08
9.5486989e-08
9.5482816e-08
9.5478933e-08
9.5475324e-08
9.5472008e-08
9.5468965e-08
9.5466216e-08
9.5463738e-08
9.5461549e-08
9.5459619e-08
9.5457963e-08
9.5456531e-08
9.5455327e-08
9.5454276e-08
9.5453371e-08
9.5453417e-08
9.5453763e-08
9.5454367e-08
9.5455205e-08
9.5456321e-08
9.5457695e-08
9.5459319e-08
9.5461203e-08
9.546333e-08
9.5465721e-08
9.5468354e-08
9.5471251e-08
9.5474386e-08
9.5477786e-08
9.5481426e-08
9.5485334e-08
9.5489482e-08
9.5493901e-08
9.5498562e-08
9.5503497e-08
9.5508674e-08
9.5514132e-08
9.5519836e-08
9.5525829e-08
9.5532074e-08
9.5538619e-08
9.5545425e-08
9.5552548e-08
9.5559945e-08
9.5567681e-08
9.5575709e-08
9.5584105e-08
9.5592819e-08
9.5601943e-08
9.5611426e-08
9.5621401e-08
9.5631821e-08
9.5642922e-08
9.5654692e-08
4.5231061e-11
9.7563885e-10
8.5290598e-09
2.64294e-08
4.9032216e-08
6.8286218e-08
8.1085914e-08
8.8448188e-08
9.2358806e-08
9.4347856e-08
9.5334372e-08
9.5815004e-08
9.6044921e-08
9.6153269e-08
9.620049e-08
9.6218947e-08
9.6223803e-08
9.6222322e-08
9.6217954e-08
9.6212384e-08
9.6206382e-08
9.6200348e-08
9.6194437e-08
9.6188752e-08
9.618331e-08
9.6178147e-08
9.6173249e-08
9.6168639e-08
9.61643e-08
9.6160247e-08
9.6156467e-08
9.6152975e-08
9.6149756e-08
9.6146825e-08
9.6144165e-08
9.6141789e-08
9.613967e-08
9.6137818e-08
9.6136189e-08
9.6134779e-08
9.613352e-08
9.6132395e-08
9.6131991e-08
9.6132159e-08
9.6132554e-08
9.6133204e-08
9.6134093e-08
9.6135196e-08
9.6136563e-08
9.6138168e-08
9.6140017e-08
9.6142115e-08
9.6144448e-08
9.6147035e-08
9.614985e-08
9.6152924e-08
9.6156224e-08
9.6159787e-08
9.6163575e-08
9.6167628e-08
9.6171906e-08
9.6176451e-08
9.6181219e-08
9.618626e-08
9.6191525e-08
9.619707e-08
9.620284e-08
9.6208899e-08
9.6215187e-08
9.6221778e-08
9.6228605e-08
9.6235753e-08
9.6243147e-08
9.6250886e-08
9.6258885e-08
9.6267264e-08
9.6275929e-08
9.6285046e-08
9.6294519e-08
9.6304629e-08
9.6315321e-08
5.051867e-11
1.2679677e-09
1.0429739e-08
3.0637557e-08
5.4294186e-08
7.2961468e-08
8.4545542e-08
9.0834856e-08
9.4018973e-08
9.5573267e-08
9.6316177e-08
9.6665481e-08
9.6826029e-08
9.6899387e-08
9.6927721e-08
9.6936859e-08
9.6937049e-08
9.6933208e-08
9.6927617e-08
9.6921387e-08
9.6914996e-08
9.6908708e-08
9.6902599e-08
9.6896751e-08
9.6891152e-08
9.6885845e-08
9.6880797e-08
9.6876045e-08
9.6871553e-08
9.6867355e-08
9.6863417e-08
9.6859773e-08
9.6856388e-08
9.6853298e-08
9.6850464e-08
9.6847921e-08
9.684562e-08
9.6843595e-08
9.6841776e-08
9.6840184e-08
9.6838724e-08
9.6837405e-08
9.6836662e-08
9.6836572e-08
9.6836724e-08
9.6837159e-08
9.6837833e-08
9.683873e-08
9.6839854e-08
9.6841187e-08
9.6842762e-08
9.6844578e-08
9.6846612e-08
9.6848903e-08
9.6851401e-08
9.6854162e-08
9.6857124e-08
9.6860354e-08
9.6863783e-08
9.686748e-08
9.6871375e-08
9.6875541e-08
9.6879901e-08
9.6884535e-08
9.6889363e-08
9.6894468e-08
9.6899766e-08
9.6905347e-08
9.6911122e-08
9.691719e-08
9.6923454e-08
9.6930023e-08
9.6936794e-08
9.6943885e-08
9.6951184e-08
9.6958829e-08
9.6966696e-08
9.6974969e-08
9.6983521e-08
9.6992656e-08
9.7002306e-08
5.7561618e-11
1.6494226e-09
1.2702197e-08
3.5303203e-08
5.9707155e-08
7.7471332e-08
8.7738803e-08
9.2994803e-08
9.552872e-08
9.6714367e-08
9.7259471e-08
9.7506065e-08
9.7615518e-08
9.766032e-08
9.7676142e-08
9.7678983e-08
9.7676017e-08
9.76706e-08
9.7664186e-08
9.7657522e-08
9.7650858e-08
9.7644397e-08
9.7638137e-08
9.7632171e-08
9.7626442e-08
9.7621022e-08
9.7615844e-08
9.7610978e-08
9.7606349e-08
9.7602032e-08
9.759795e-08
9.7594179e-08
9.7590641e-08
9.7587414e-08
9.7584418e-08
9.7581728e-08
9.7579258e-08
9.7577077e-08
9.7575082e-08
9.7573327e-08
9.757168e-08
9.7570191e-08
9.7569239e-08
9.7568825e-08
9.7568664e-08
9.7568918e-08
9.7569364e-08
9.7570035e-08
9.7570932e-08
9.7572048e-08
9.7573373e-08
9.7574909e-08
9.7576657e-08
9.757866e-08
9.7580845e-08
9.7583303e-08
9.758593e-08
9.7588836e-08
9.759191e-08
9.759526e-08
9.7598778e-08
9.7602572e-08
9.7606529e-08
9.7610763e-08
9.7615158e-08
9.7619832e-08
9.7624664e-08
9.7629775e-08
9.7635044e-08
9.7640597e-08
9.7646306e-08
9.7652307e-08
9.7658464e-08
9.7664922e-08
9.7671532e-08
9.767846e-08
9.7685544e-08
9.7692996e-08
9.7700646e-08
9.7708834e-08
9.7717473e-08
6.6946579e-11
2.1467505e-09
1.5405981e-08
4.0427064e-08
6.5199427e-08
8.1759848e-08
9.0654948e-08
9.4943038e-08
9.690933e-08
9.7789799e-08
9.8178167e-08
9.8346173e-08
9.8417544e-08
9.8442978e-08
9.8449667e-08
9.844814e-08
9.8443079e-08
9.843663e-08
9.84297e-08
9.8422746e-08
9.8415916e-08
9.8409329e-08
9.8402976e-08
9.8396915e-08
9.8391103e-08
9.8385589e-08
9.8380321e-08
9.8375353e-08
9.8370626e-08
9.83662e-08
9.836201e-08
9.8358122e-08
9.8354466e-08
9.835111e-08
9.8347984e-08
9.8345155e-08
9.8342543e-08
9.8340213e-08
9.8338069e-08
9.8336158e-08
9.8334355e-08
9.83327e-08
9.8331572e-08
9.8330941e-08
9.8330388e-08
9.833047e-08
9.8330683e-08
9.833113e-08
9.8331797e-08
9.8332678e-08
9.833377e-08
9.8335071e-08
9.8336575e-08
9.8338275e-08
9.8340175e-08
9.8342323e-08
9.8344636e-08
9.8347213e-08
9.8349953e-08
9.835295e-08
9.8356109e-08
9.8359528e-08
9.8363099e-08
9.836693e-08
9.8370909e-08
9.8375149e-08
9.8379531e-08
9.8384173e-08
9.8388951e-08
9.8393993e-08
9.8399163e-08
9.8404601e-08
9.8410161e-08
9.8415993e-08
9.8421936e-08
9.8428159e-08
9.8434486e-08
9.8441132e-08
9.8447911e-08
9.8455174e-08
9.846284e-08
7.9534006e-11
2.7944724e-09
1.8606896e-08
4.599513e-08
7.0689373e-08
8.5778467e-08
9.3293071e-08
9.6699822e-08
9.8183407e-08
9.8817742e-08
9.9085208e-08
9.9196203e-08
9.9237746e-08
9.9250637e-08
9.9251361e-08
9.9247033e-08
9.9240651e-08
9.9233581e-08
9.9226343e-08
9.9219233e-08
9.9212304e-08
9.9205654e-08
9.9199241e-08
9.9193131e-08
9.9187261e-08
9.9181693e-08
9.917636e-08
9.9171329e-08
9.9166526e-08
9.9162025e-08
9.9157747e-08
9.9153772e-08
9.9150016e-08
9.9146562e-08
9.9143322e-08
9.9140381e-08
9.9137643e-08
9.913519e-08
9.9132909e-08
9.9130867e-08
9.912892e-08
9.9127125e-08
9.912583e-08
9.9125011e-08
9.9124253e-08
9.9123966e-08
9.9123969e-08
9.9124219e-08
9.9124666e-08
9.9125322e-08
9.9126176e-08
9.9127234e-08
9.9128486e-08
9.9129942e-08
9.9131587e-08
9.9133431e-08
9.9135437e-08
9.9137696e-08
9.914011e-08
9.9142763e-08
9.914557e-08
9.9148623e-08
9.9151815e-08
9.9155251e-08
9.9158822e-08
9.9162637e-08
9.9166577e-08
9.9170759e-08
9.9175057e-08
9.9179595e-08
9.9184239e-08
9.9189125e-08
9.9194102e-08
9.9199323e-08
9.9204614e-08
9.921015e-08
9.9215741e-08
9.9221605e-08
9.922754e-08
9.9233907e-08
9.9240639e-08
9.6642578e-11
3.637066e-09
2.2376621e-08
5.1974544e-08
7.6088143e-08
8.9488872e-08
9.5662004e-08
9.8289537e-08
9.9374064e-08
9.9815464e-08
9.9992771e-08
1.0006137e-07
1.0008353e-07
1.0008772e-07
1.0008453e-07
1.0007845e-07
1.0007129e-07
1.0006388e-07
1.0005649e-07
1.0004932e-07
1.0004237e-07
1.000357e-07
1.0002928e-07
1.0002315e-07
1.0001726e-07
1.0001167e-07
1.0000631e-07
1.0000124e-07
9.9996406e-08
9.9991853e-08
9.9987527e-08
9.9983485e-08
9.9979666e-08
9.9976131e-08
9.9972813e-08
9.9969776e-08
9.9966945e-08
9.9964383e-08
9.9961997e-08
9.9959837e-08
9.9957776e-08
9.9955854e-08
9.995442e-08
9.9953421e-08
9.9952497e-08
9.9951992e-08
9.9951638e-08
9.9951715e-08
9.9951959e-08
9.9952402e-08
9.9953033e-08
9.9953855e-08
9.9954863e-08
9.9956061e-08
9.9957444e-08
9.9959016e-08
9.9960769e-08
9.9962709e-08
9.996482e-08
9.9967126e-08
9.9969599e-08
9.9972288e-08
9.9975116e-08
9.9978161e-08
9.9981337e-08
9.9984734e-08
9.9988245e-08
9.9991974e-08
9.9995805e-08
9.999985e-08
1.0000398e-07
1.0000833e-07
1.0001274e-07
1.0001736e-07
1.0002202e-07
1.0002689e-07
1.0003177e-07
1.0003688e-07
1.00042e-07
1.000475e-07
1.0005334e-07
1.2037084e-10
4.7318555e-09
2.6791723e-08
5.8309259e-08
8.1303649e-08
9.2865423e-08
9.7779575e-08
9.9739424e-08
1.0050407e-07
1.0079892e-07
1.009118e-07
1.0094946e-07
1.0095917e-07
1.009579e-07
1.0095236e-07
1.0094528e-07
1.0093772e-07
1.0093017e-07
1.0092277e-07
1.0091561e-07
1.009087e-07
1.0090206e-07
1.0089568e-07
1.0088958e-07
1.0088372e-07
1.0087814e-07
1.008728e-07
1.0086773e-07
1.008629e-07
1.0085833e-07
1.0085399e-07
1.0084991e-07
1.0084606e-07
1.0084248e-07
1.0083911e-07
1.0083601e-07
1.0083311e-07
1.0083046e-07
1.00828e-07
1.0082574e-07
1.0082359e-07
1.0082157e-07
1.0082002e-07
1.0081886e-07
1.0081779e-07
1.0081711e-07
1.0081652e-07
1.0081632e-07
1.0081637e-07
1.0081661e-07
1.0081704e-07
1.0081764e-07
1.0081842e-07
1.0081937e-07
1.008205e-07
1.008218e-07
1.0082328e-07
1.0082493e-07
1.0082675e-07
1.0082875e-07
1.0083091e-07
1.0083324e-07
1.0083572e-07
1.0083838e-07
1.0084117e-07
1.0084416e-07
1.0084726e-07
1.0085054e-07
1.0085392e-07
1.0085748e-07
1.0086112e-07
1.0086494e-07
1.008688e-07
1.0087285e-07
1.008769e-07
1.0088112e-07
1.0088532e-07
1.0088969e-07
1.0089404e-07
1.0089871e-07
1.009037e-07
1.54179e-10
6.1529358e-09
3.1931518e-08
6.4915948e-08
8.6246029e-08
9.5897123e-08
9.9671617e-08
1.0107845e-07
1.0159535e-07
1.0178402e-07
1.0184932e-07
1.0186791e-07
1.0186962e-07
1.0186504e-07
1.0185818e-07
1.0185062e-07
1.0184294e-07
1.018354e-07
1.0182807e-07
1.0182101e-07
1.018142e-07
1.0180766e-07
1.0180137e-07
1.0179535e-07
1.0178956e-07
1.0178405e-07
1.0177876e-07
1.0177374e-07
1.0176894e-07
1.017644e-07
1.0176008e-07
1.0175601e-07
1.0175216e-07
1.0174857e-07
1.0174518e-07
1.0174205e-07
1.0173911e-07
1.0173642e-07
1.017339e-07
1.0173158e-07
1.0172937e-07
1.0172728e-07
1.0172563e-07
1.0172433e-07
1.0172314e-07
1.017223e-07
1.0172156e-07
1.0172114e-07
1.0172089e-07
1.0172098e-07
1.0172121e-07
1.0172161e-07
1.0172217e-07
1.0172289e-07
1.0172379e-07
1.0172483e-07
1.0172605e-07
1.0172742e-07
1.0172896e-07
1.0173064e-07
1.0173249e-07
1.0173449e-07
1.0173664e-07
1.0173894e-07
1.0174137e-07
1.0174395e-07
1.0174666e-07
1.017495e-07
1.0175245e-07
1.0175554e-07
1.017587e-07
1.01762e-07
1.0176535e-07
1.0176882e-07
1.017723e-07
1.017759e-07
1.0177945e-07
1.0178313e-07
1.0178671e-07
1.017906e-07
1.0179477e-07
2.0392788e-10
7.9966989e-09
3.7873835e-08
7.1680791e-08
9.0833934e-08
9.8588445e-08
1.013703e-07
1.0233599e-07
1.0266818e-07
1.0278254e-07
1.0281583e-07
1.0282238e-07
1.0281933e-07
1.0281295e-07
1.0280547e-07
1.0279779e-07
1.0279018e-07
1.0278279e-07
1.0277562e-07
1.0276874e-07
1.0276208e-07
1.0275571e-07
1.0274956e-07
1.0274368e-07
1.0273802e-07
1.0273263e-07
1.0272745e-07
1.0272252e-07
1.0271781e-07
1.0271334e-07
1.0270908e-07
1.0270507e-07
1.0270126e-07
1.026977e-07
1.0269433e-07
1.026912e-07
1.0268826e-07
1.0268555e-07
1.0268301e-07
1.0268067e-07
1.0267842e-07
1.026763e-07
1.0267457e-07
1.0267318e-07
1.0267188e-07
1.0267092e-07
1.0267004e-07
1.0266947e-07
1.02669e-07
1.0266885e-07
1.026689e-07
1.0266912e-07
1.0266949e-07
1.0267e-07
1.0267067e-07
1.0267148e-07
1.0267245e-07
1.0267356e-07
1.0267482e-07
1.0267622e-07
1.0267777e-07
1.0267945e-07
1.0268127e-07
1.0268322e-07
1.026853e-07
1.0268751e-07
1.0268982e-07
1.0269226e-07
1.0269478e-07
1.0269742e-07
1.0270012e-07
1.0270294e-07
1.0270577e-07
1.0270872e-07
1.0271163e-07
1.0271466e-07
1.0271756e-07
1.0272061e-07
1.0272346e-07
1.027266e-07
1.0272996e-07
2.7976602e-10
1.039004e-08
4.468723e-08
7.8458671e-08
9.5001537e-08
1.0095925e-07
1.0291227e-07
1.0354077e-07
1.0374303e-07
1.0380425e-07
1.0381893e-07
1.0381842e-07
1.0381281e-07
1.0380562e-07
1.0379801e-07
1.0379046e-07
1.0378307e-07
1.0377593e-07
1.0376902e-07
1.0376239e-07
1.0375597e-07
1.0374983e-07
1.0374389e-07
1.0373823e-07
1.0373275e-07
1.0372754e-07
1.0372252e-07
1.0371776e-07
1.0371317e-07
1.0370884e-07
1.0370469e-07
1.0370079e-07
1.0369706e-07
1.0369358e-07
1.0369026e-07
1.0368719e-07
1.0368428e-07
1.0368161e-07
1.0367908e-07
1.0367676e-07
1.0367451e-07
1.036724e-07
1.0367061e-07
1.0366915e-07
1.0366778e-07
1.0366672e-07
1.0366574e-07
1.0366505e-07
1.0366443e-07
1.036641e-07
1.036639e-07
1.0366398e-07
1.0366416e-07
1.0366449e-07
1.0366496e-07
1.0366555e-07
1.0366629e-07
1.0366715e-07
1.0366815e-07
1.0366928e-07
1.0367054e-07
1.0367192e-07
1.0367343e-07
1.0367506e-07
1.0367679e-07
1.0367864e-07
1.0368058e-07
1.0368263e-07
1.0368474e-07
1.0368696e-07
1.0368921e-07
1.0369158e-07
1.0369391e-07
1.0369637e-07
1.0369874e-07
1.0370122e-07
1.0370352e-07
1.0370597e-07
1.0370814e-07
1.037106e-07
1.0371316e-07
3.9952905e-10
1.3503245e-08
5.2417128e-08
8.5076437e-08
9.8705282e-08
1.0304344e-07
1.0433662e-07
1.0471966e-07
1.0483402e-07
1.0486229e-07
1.0486575e-07
1.0486143e-07
1.0485467e-07
1.0484733e-07
1.048399e-07
1.0483268e-07
1.0482563e-07
1.0481887e-07
1.048123e-07
1.0480602e-07
1.0479992e-07
1.0479409e-07
1.0478844e-07
1.0478306e-07
1.0477784e-07
1.0477289e-07
1.0476809e-07
1.0476355e-07
1.0475916e-07
1.0475504e-07
1.0475105e-07
1.0474731e-07
1.0474372e-07
1.0474038e-07
1.0473716e-07
1.0473421e-07
1.0473137e-07
1.0472878e-07
1.0472629e-07
1.0472404e-07
1.0472182e-07
1.0471977e-07
1.0471796e-07
1.0471648e-07
1.0471506e-07
1.0471395e-07
1.0471289e-07
1.0471212e-07
1.0471138e-07
1.0471094e-07
1.0471053e-07
1.0471044e-07
1.0471045e-07
1.0471062e-07
1.0471091e-07
1.047113e-07
1.0471184e-07
1.0471247e-07
1.0471324e-07
1.0471411e-07
1.0471511e-07
1.0471621e-07
1.0471742e-07
1.0471874e-07
1.0472014e-07
1.0472166e-07
1.0472324e-07
1.0472492e-07
1.0472664e-07
1.0472847e-07
1.0473029e-07
1.0473223e-07
1.047341e-07
1.0473609e-07
1.0473795e-07
1.0473993e-07
1.0474167e-07
1.0474357e-07
1.0474512e-07
1.0474694e-07
1.0474876e-07
5.9476442e-10
1.7571473e-08
6.1062205e-08
9.1342198e-08
1.0192945e-07
1.0488661e-07
1.056829e-07
1.058994e-07
1.059546e-07
1.059651e-07
1.0596277e-07
1.0595679e-07
1.0594981e-07
1.0594274e-07
1.0593575e-07
1.05929e-07
1.0592244e-07
1.0591615e-07
1.0591004e-07
1.0590419e-07
1.0589852e-07
1.0589309e-07
1.0588783e-07
1.0588281e-07
1.0587794e-07
1.0587332e-07
1.0586883e-07
1.0586459e-07
1.0586048e-07
1.0585661e-07
1.0585286e-07
1.0584936e-07
1.0584596e-07
1.0584282e-07
1.0583977e-07
1.0583697e-07
1.0583427e-07
1.0583181e-07
1.0582943e-07
1.0582728e-07
1.0582516e-07
1.0582322e-07
1.0582142e-07
1.0581997e-07
1.0581853e-07
1.0581741e-07
1.0581631e-07
1.0581549e-07
1.0581468e-07
1.0581416e-07
1.0581363e-07
1.058134e-07
1.0581319e-07
1.0581324e-07
1.0581338e-07
1.058136e-07
1.0581396e-07
1.0581438e-07
1.0581495e-07
1.0581557e-07
1.0581634e-07
1.0581717e-07
1.0581812e-07
1.0581914e-07
1.0582025e-07
1.0582144e-07
1.058227e-07
1.0582403e-07
1.0582539e-07
1.0582684e-07
1.0582827e-07
1.058298e-07
1.0583125e-07
1.058328e-07
1.0583419e-07
1.0583571e-07
1.0583695e-07
1.0583835e-07
1.0583934e-07
1.0584059e-07
1.0584174e-07
9.2129537e-10
2.2933225e-08
7.0536506e-08
9.7062528e-08
1.0468955e-07
1.0654258e-07
1.0698888e-07
1.0709884e-07
1.0712072e-07
1.0712146e-07
1.0711652e-07
1.0711018e-07
1.0710356e-07
1.0709706e-07
1.070907e-07
1.0708459e-07
1.0707865e-07
1.0707296e-07
1.0706742e-07
1.0706213e-07
1.0705698e-07
1.0705207e-07
1.0704729e-07
1.0704274e-07
1.0703832e-07
1.0703412e-07
1.0703003e-07
1.0702618e-07
1.0702243e-07
1.070189e-07
1.0701547e-07
1.0701227e-07
1.0700916e-07
1.0700628e-07
1.0700347e-07
1.070009e-07
1.069984e-07
1.0699613e-07
1.0699391e-07
1.0699192e-07
1.0698995e-07
1.0698816e-07
1.0698644e-07
1.0698506e-07
1.0698366e-07
1.0698257e-07
1.0698148e-07
1.0698065e-07
1.0697981e-07
1.0697924e-07
1.0697865e-07
1.0697833e-07
1.0697797e-07
1.0697791e-07
1.0697787e-07
1.0697799e-07
1.0697817e-07
1.0697843e-07
1.069788e-07
1.0697923e-07
1.0697977e-07
1.0698037e-07
1.0698107e-07
1.0698183e-07
1.0698266e-07
1.0698356e-07
1.0698451e-07
1.0698553e-07
1.0698655e-07
1.0698766e-07
1.0698873e-07
1.0698988e-07
1.0699094e-07
1.0699209e-07
1.0699307e-07
1.0699417e-07
1.0699496e-07
1.0699593e-07
1.0699644e-07
1.0699721e-07
1.0699774e-07
1.4779331e-09
3.0104258e-08
8.061236e-08
1.0206673e-07
1.0703246e-07
1.080698e-07
1.0829137e-07
1.0833657e-07
1.0834243e-07
1.083391e-07
1.083336e-07
1.0832771e-07
1.0832184e-07
1.0831615e-07
1.0831061e-07
1.0830529e-07
1.0830012e-07
1.0829517e-07
1.0829035e-07
1.0828575e-07
1.0828126e-07
1.0827698e-07
1.0827281e-07
1.0826884e-07
1.0826498e-07
1.0826131e-07
1.0825774e-07
1.0825437e-07
1.0825108e-07
1.0824799e-07
1.0824498e-07
1.0824217e-07
1.0823943e-07
1.0823689e-07
1.0823441e-07
1.0823214e-07
1.0822991e-07
1.082279e-07
1.0822592e-07
1.0822415e-07
1.0822239e-07
1.0822083e-07
1.0821923e-07
1.08218e-07
1.0821669e-07
1.0821568e-07
1.0821464e-07
1.0821386e-07
1.0821303e-07
1.0821247e-07
1.0821185e-07
1.082115e-07
1.0821107e-07
1.0821093e-07
1.0821069e-07
1.0821078e-07
1.0821079e-07
1.0821092e-07
1.0821114e-07
1.0821139e-07
1.0821175e-07
1.0821214e-07
1.0821262e-07
1.0821314e-07
1.0821373e-07
1.0821436e-07
1.0821504e-07
1.0821577e-07
1.082165e-07
1.0821728e-07
1.0821803e-07
1.0821885e-07
1.0821956e-07
1.0822036e-07
1.0822097e-07
1.0822172e-07
1.0822212e-07
1.0822274e-07
1.0822285e-07
1.0822324e-07
1.0822327e-07
2.440558e-09
3.9935637e-08
9.0849409e-08
1.0623838e-07
1.0903345e-07
1.0952682e-07
1.0961835e-07
1.0963177e-07
1.0963049e-07
1.0962613e-07
1.0962119e-07
1.0961625e-07
1.0961142e-07
1.0960676e-07
1.0960224e-07
1.095979e-07
1.0959368e-07
1.0958963e-07
1.0958569e-07
1.0958193e-07
1.0957826e-07
1.0957476e-07
1.0957134e-07
1.0956809e-07
1.0956492e-07
1.0956192e-07
1.0955898e-07
1.0955621e-07
1.0955351e-07
1.0955097e-07
1.0954848e-07
1.0954617e-07
1.095439e-07
1.0954181e-07
1.0953974e-07
1.0953787e-07
1.0953601e-07
1.0953434e-07
1.0953267e-07
1.0953121e-07
1.0952972e-07
1.0952843e-07
1.0952709e-07
1.0952605e-07
1.0952488e-07
1.0952404e-07
1.0952309e-07
1.0952244e-07
1.0952165e-07
1.0952117e-07
1.0952055e-07
1.0952025e-07
1.0951977e-07
1.0951963e-07
1.0951929e-07
1.0951932e-07
1.0951915e-07
1.0951926e-07
1.0951931e-07
1.0951946e-07
1.0951964e-07
1.0951988e-07
1.0952016e-07
1.0952049e-07
1.0952085e-07
1.0952128e-07
1.0952169e-07
1.0952218e-07
1.0952263e-07
1.0952317e-07
1.095236e-07
1.0952416e-07
1.0952455e-07
1.0952509e-07
1.0952536e-07
1.0952585e-07
1.0952592e-07
1.0952631e-07
1.0952608e-07
1.0952625e-07
1.0952586e-07
4.1088711e-09
5.3998029e-08
1.0053104e-07
1.0954684e-07
1.1078916e-07
1.1096993e-07
1.1099617e-07
1.1099754e-07
1.1099462e-07
1.1099095e-07
1.1098724e-07
1.1098361e-07
1.1098011e-07
1.1097672e-07
1.1097344e-07
1.1097028e-07
1.1096722e-07
1.1096427e-07
1.1096141e-07
1.1095867e-07
1.10956e-07
1.1095345e-07
1.1095095e-07
1.1094859e-07
1.1094627e-07
1.1094408e-07
1.1094193e-07
1.1093992e-07
1.1093793e-07
1.1093608e-07
1.1093424e-07
1.1093256e-07
1.1093088e-07
1.1092935e-07
1.1092781e-07
1.1092645e-07
1.1092505e-07
1.1092384e-07
1.1092257e-07
1.1092151e-07
1.1092037e-07
1.1091945e-07
1.1091844e-07
1.1091766e-07
1.1091672e-07
1.1091614e-07
1.1091534e-07
1.109149e-07
1.109142e-07
1.1091389e-07
1.1091331e-07
1.1091312e-07
1.1091264e-07
1.1091257e-07
1.1091219e-07
1.1091223e-07
1.1091193e-07
1.1091207e-07
1.1091195e-07
1.1091205e-07
1.1091209e-07
1.1091221e-07
1.1091234e-07
1.1091251e-07
1.1091269e-07
1.1091293e-07
1.1091314e-07
1.1091342e-07
1.1091364e-07
1.1091396e-07
1.1091416e-07
1.1091448e-07
1.1091463e-07
1.1091493e-07
1.1091498e-07
1.1091526e-07
1.109151e-07
1.1091533e-07
1.1091493e-07
1.1091491e-07
1.1091438e-07
6.9576127e-09
7.5629806e-08
1.0863045e-07
1.1206439e-07
1.1240517e-07
1.1244394e-07
1.1244715e-07
1.1244572e-07
1.124437e-07
1.1244157e-07
1.1243955e-07
1.1243754e-07
1.1243565e-07
1.1243378e-07
1.1243202e-07
1.1243026e-07
1.1242862e-07
1.1242698e-07
1.1242544e-07
1.1242392e-07
1.1242248e-07
1.1242106e-07
1.1241972e-07
1.124184e-07
1.1241715e-07
1.1241593e-07
1.1241477e-07
1.1241365e-07
1.1241257e-07
1.1241154e-07
1.1241054e-07
1.124096e-07
1.1240868e-07
1.1240783e-07
1.1240698e-07
1.1240622e-07
1.1240545e-07
1.1240477e-07
1.1240406e-07
1.1240347e-07
1.1240283e-07
1.1240232e-07
1.1240174e-07
1.1240131e-07
1.1240079e-07
1.1240045e-07
1.1239996e-07
1.1239974e-07
1.123993e-07
1.1239915e-07
1.1239875e-07
1.1239869e-07
1.1239833e-07
1.1239834e-07
1.1239801e-07
1.123981e-07
1.1239781e-07
1.1239796e-07
1.1239769e-07
1.1239789e-07
1.1239776e-07
1.1239786e-07
1.1239785e-07
1.1239794e-07
1.1239796e-07
1.1239809e-07
1.1239812e-07
1.1239828e-07
1.123983e-07
1.1239848e-07
1.1239848e-07
1.1239867e-07
1.1239862e-07
1.1239881e-07
1.1239868e-07
1.1239889e-07
1.1239861e-07
1.1239875e-07
1.1239838e-07
1.1239834e-07
1.1239788e-07
8.5281211e-08
8.5286299e-08
8.528556e-08
8.5278939e-08
8.5270533e-08
8.526098e-08
8.5251245e-08
8.5241356e-08
8.5231541e-08
8.5221775e-08
8.5212164e-08
8.5202651e-08
8.5193319e-08
8.5184104e-08
8.5175086e-08
8.51662e-08
8.5157528e-08
8.5149007e-08
8.514072e-08
8.5132606e-08
8.5124746e-08
8.5117088e-08
8.5109708e-08
8.5102559e-08
8.5095713e-08
8.5089134e-08
8.5082885e-08
8.5076939e-08
8.5071348e-08
8.50661e-08
8.5061235e-08
8.5056749e-08
8.5052672e-08
8.5049012e-08
8.5045786e-08
8.5043e-08
8.5040689e-08
8.5038891e-08
8.5037624e-08
8.5036919e-08
8.5036759e-08
8.5037146e-08
8.5038042e-08
8.5039443e-08
8.5041309e-08
8.5043636e-08
8.5046376e-08
8.5049499e-08
8.5052899e-08
8.5056434e-08
8.5059799e-08
8.5062491e-08
8.5063577e-08
8.5061475e-08
8.5053466e-08
8.5035055e-08
8.49989e-08
8.4933332e-08
8.4820147e-08
8.4631631e-08
8.4326505e-08
8.3844825e-08
8.3101834e-08
8.1981411e-08
8.0330366e-08
7.7956342e-08
7.4633754e-08
7.0124806e-08
6.4223585e-08
5.6829135e-08
4.8042479e-08
3.8259771e-08
2.8204098e-08
1.8827957e-08
1.1063792e-08
5.506013e-09
2.1977437e-09
6.6402131e-10
1.8089106e-10
1.1846408e-10
1.4678092e-10
8.549741e-08
8.5502885e-08
8.5501796e-08
8.5494921e-08
8.548626e-08
8.5476631e-08
8.5466773e-08
8.5456802e-08
8.5446899e-08
8.5437074e-08
8.5427396e-08
8.5417838e-08
8.5408452e-08
8.5399201e-08
8.5390139e-08
8.5381226e-08
8.5372521e-08
8.536398e-08
8.5355668e-08
8.534754e-08
8.5339664e-08
8.5331996e-08
8.5324607e-08
8.5317452e-08
8.5310603e-08
8.5304021e-08
8.5297774e-08
8.5291825e-08
8.528624e-08
8.5280989e-08
8.5276131e-08
8.527164e-08
8.5267572e-08
8.5263903e-08
8.5260687e-08
8.5257899e-08
8.5255588e-08
8.5253767e-08
8.5252496e-08
8.5251766e-08
8.5251601e-08
8.5251963e-08
8.5252852e-08
8.5254226e-08
8.5256082e-08
8.5258384e-08
8.5261119e-08
8.5264232e-08
8.5267658e-08
8.527125e-08
8.5274767e-08
8.527775e-08
8.5279405e-08
8.5278333e-08
8.5272155e-08
8.5256881e-08
8.5225981e-08
8.5168983e-08
8.5069454e-08
8.4902163e-08
8.4629237e-08
8.4195154e-08
8.3520625e-08
8.2495727e-08
8.0973433e-08
7.8765896e-08
7.5647748e-08
7.1373201e-08
6.5715607e-08
5.8537265e-08
4.9888007e-08
4.0109541e-08
2.9889745e-08
2.0191315e-08
1.2013457e-08
6.0525962e-09
2.440838e-09
7.3639929e-10
1.8744919e-10
1.0942655e-10
1.3368808e-10
8.5725104e-08
8.5730916e-08
8.5729451e-08
8.5722271e-08
8.5713427e-08
8.5703661e-08
8.5693676e-08
8.5683613e-08
8.567363e-08
8.5663743e-08
8.5654006e-08
8.5644402e-08
8.5634971e-08
8.5625686e-08
8.5616591e-08
8.5607653e-08
8.5598924e-08
8.5590365e-08
8.5582037e-08
8.5573898e-08
8.5566014e-08
8.5558341e-08
8.5550949e-08
8.5543793e-08
8.5536947e-08
8.5530366e-08
8.5524123e-08
8.5518178e-08
8.55126e-08
8.5507352e-08
8.5502501e-08
8.5498012e-08
8.5493949e-08
8.5490281e-08
8.5487068e-08
8.5484284e-08
8.5481976e-08
8.5480142e-08
8.5478861e-08
8.5478116e-08
8.5477939e-08
8.5478285e-08
8.5479159e-08
8.5480512e-08
8.5482351e-08
8.5484631e-08
8.5487353e-08
8.5490456e-08
8.5493896e-08
8.5497535e-08
8.5501178e-08
8.5504416e-08
8.5506577e-08
8.5506432e-08
8.5501914e-08
8.5489505e-08
8.546344e-08
8.5414378e-08
8.5327587e-08
8.5180232e-08
8.4937775e-08
8.4549085e-08
8.3940402e-08
8.3008232e-08
8.1612234e-08
7.9569992e-08
7.6657772e-08
7.2623629e-08
6.7222125e-08
6.0279874e-08
5.1794331e-08
4.2047834e-08
3.1684443e-08
2.1667919e-08
1.3060428e-08
6.6661293e-09
2.7189048e-09
8.2150222e-10
1.9708374e-10
1.0158233e-10
1.2208978e-10
8.596504e-08
8.5971117e-08
8.5969235e-08
8.596176e-08
8.5952711e-08
8.5942794e-08
8.5932684e-08
8.5922527e-08
8.5912467e-08
8.5902515e-08
8.5892725e-08
8.5883074e-08
8.5873605e-08
8.5864285e-08
8.5855163e-08
8.58462e-08
8.5837453e-08
8.5828879e-08
8.5820541e-08
8.5812394e-08
8.5804507e-08
8.5796832e-08
8.5789441e-08
8.578229e-08
8.5775448e-08
8.5768875e-08
8.5762639e-08
8.5756703e-08
8.5751132e-08
8.5745894e-08
8.574105e-08
8.573657e-08
8.5732512e-08
8.5728851e-08
8.572564e-08
8.5722859e-08
8.5720558e-08
8.5718718e-08
8.5717424e-08
8.5716669e-08
8.5716478e-08
8.571681e-08
8.5717667e-08
8.5719003e-08
8.572082e-08
8.5723081e-08
8.5725783e-08
8.5728876e-08
8.573232e-08
8.5735999e-08
8.5739744e-08
8.5743208e-08
8.5745811e-08
8.5746496e-08
8.5743469e-08
8.5733662e-08
8.5712011e-08
8.5670255e-08
8.5595261e-08
8.5466515e-08
8.5252707e-08
8.4907046e-08
8.4361314e-08
8.3518644e-08
8.2245828e-08
8.0366784e-08
7.7660816e-08
7.3871811e-08
6.8737729e-08
6.2051094e-08
5.3756394e-08
4.4072128e-08
3.3589665e-08
2.3263408e-08
1.4212771e-08
7.3542286e-09
3.0368968e-09
9.2138348e-10
2.101743e-10
9.4781518e-11
1.1162419e-10
8.6218005e-08
8.6224266e-08
8.6221911e-08
8.6214168e-08
8.6204884e-08
8.6194806e-08
8.6184571e-08
8.6174319e-08
8.6164184e-08
8.615417e-08
8.6144329e-08
8.6134633e-08
8.6125127e-08
8.6115776e-08
8.6106629e-08
8.6097646e-08
8.6088883e-08
8.6080299e-08
8.6071954e-08
8.6063804e-08
8.6055916e-08
8.6048245e-08
8.6040859e-08
8.6033716e-08
8.6026882e-08
8.6020321e-08
8.6014096e-08
8.6008174e-08
8.6002615e-08
8.5997392e-08
8.5992558e-08
8.5988091e-08
8.5984042e-08
8.5980391e-08
8.5977185e-08
8.597441e-08
8.5972113e-08
8.5970275e-08
8.5968971e-08
8.5968206e-08
8.5968003e-08
8.5968322e-08
8.5969162e-08
8.597048e-08
8.5972276e-08
8.5974515e-08
8.5977195e-08
8.5980274e-08
8.5983716e-08
8.5987424e-08
8.5991252e-08
8.5994909e-08
8.5997899e-08
8.5999318e-08
8.5997624e-08
8.5990162e-08
8.597252e-08
8.5937447e-08
8.5873325e-08
8.5761852e-08
8.5574844e-08
8.5269768e-08
8.4783934e-08
8.4027243e-08
8.2874043e-08
8.1155423e-08
7.8655156e-08
7.5115018e-08
7.0258828e-08
6.3847058e-08
5.5771263e-08
4.6182089e-08