/*--------------------------------*- C++ -*----------------------------------*\
| =========                 |                                                 |
| \\      /  F ield         | OpenFOAM: The Open Source CFD Toolbox           |
|  \\    /   O peration     | Version:  v2006                                 |
|   \\  /    A nd           | Website:  www.openfoam.com                      |
|    \\/     M anipulation  |                                                 |
\*---------------------------------------------------------------------------*/
FoamFile
{
    version     2.0;
    format      ascii;
    class       volScalarField;
    location    "10000";
    object      Cp;
}
// * * * * * * * * * * * * * * * * * * * * * * * * * * * * * * * * * * * * * //

dimensions      [0 0 0 0 0 0 0];


internalField   nonuniform List<scalar> 
102907
(
0.0054654428
0.0054659801
0.0054659448
0.0054663318
0.0054663225
0.0054665933
0.0054666082
0.0054668099
0.0054668477
0.0054670113
0.0054670881
0.0054672362
0.0054673565
0.0054675084
0.0054676295
0.0054677307
0.0054677937
0.0054678105
0.0054677804
0.0054677355
0.0054677328
0.0054677412
0.0054677589
0.0054677903
0.0054678279
0.0054678848
0.0054679456
0.005468008
0.0054680695
0.0054681271
0.0054681782
0.0054682182
0.0054682412
0.0054682491
0.0054682372
0.0054682038
0.0054681616
0.0054681327
0.0054681056
0.0054680762
0.0054680471
0.0054680159
0.0054679805
0.0054679434
0.0054679079
0.0054678765
0.0054678494
0.0054678266
0.0054678061
0.0054677862
0.0054677676
0.0054677519
0.0054677371
0.0054677203
0.0054677012
0.0054676778
0.0054676473
0.0054676082
0.0054675621
0.0054675113
0.0054674575
0.0054674026
0.0054673474
0.0054672922
0.005467237
0.0054671814
0.0054671247
0.0054670663
0.0054670054
0.0054669414
0.005466874
0.0054668027
0.0054667276
0.0054666488
0.0054665665
0.0054664814
0.0054663907
0.0054662994
0.0054661991
0.0054661021
0.0054659871
0.0051336307
0.005134715
0.0051347893
0.0051355539
0.0051357474
0.0051362961
0.0051365307
0.0051369653
0.0051371942
0.0051375566
0.0051377774
0.0051380849
0.0051383197
0.0051386153
0.0051388944
0.0051392096
0.0051395091
0.0051397676
0.0051399723
0.0051401125
0.0051402018
0.0051402509
0.0051402962
0.0051403536
0.0051404462
0.0051405721
0.0051407336
0.0051409236
0.0051411352
0.0051413663
0.0051416073
0.0051418534
0.0051420927
0.0051423096
0.0051424998
0.0051426609
0.0051427906
0.0051428681
0.005142892
0.005142865
0.0051428151
0.0051427714
0.0051427723
0.0051428266
0.0051429438
0.0051430953
0.0051432732
0.0051434555
0.0051436481
0.0051438485
0.0051440478
0.0051442191
0.0051443511
0.0051444569
0.0051445134
0.0051445516
0.0051445572
0.0051445601
0.0051445732
0.0051446013
0.0051446531
0.0051447172
0.005144805
0.0051448998
0.0051450101
0.0051451197
0.0051452393
0.0051453526
0.0051454746
0.0051455883
0.0051457091
0.0051458232
0.0051459417
0.0051460585
0.0051461758
0.0051463025
0.0051464229
0.0051465892
0.0051466827
0.0051469613
0.0051469626
0.0048422502
0.0048436926
0.0048439382
0.0048449277
0.0048453259
0.0048460506
0.004846477
0.0048470668
0.0048474711
0.0048479784
0.0048483492
0.0048487728
0.0048491062
0.0048494632
0.0048497909
0.0048501512
0.0048505307
0.0048509342
0.0048513242
0.0048516695
0.0048519631
0.0048521989
0.0048523896
0.0048525423
0.0048526862
0.004852832
0.004852994
0.0048531792
0.0048533866
0.0048536199
0.0048538762
0.0048541526
0.0048544474
0.0048547518
0.0048550596
0.0048553596
0.0048556383
0.0048558826
0.004856087
0.0048562571
0.0048564018
0.0048565543
0.0048567362
0.0048569554
0.0048572056
0.0048574503
0.0048576851
0.0048579007
0.0048581078
0.0048583026
0.0048584798
0.0048586272
0.0048587493
0.0048588513
0.0048589664
0.0048590809
0.0048592383
0.0048593823
0.0048595857
0.0048597458
0.0048599871
0.0048601521
0.0048604261
0.0048605889
0.0048608925
0.0048610475
0.0048613794
0.0048615251
0.004861889
0.0048620263
0.0048624277
0.0048625585
0.0048630029
0.0048631271
0.0048636212
0.0048637447
0.0048643009
0.0048644323
0.0048650691
0.0048652393
0.0048659188
0.004573774
0.0045754614
0.0045758261
0.00457697
0.0045775049
0.0045783541
0.0045789083
0.0045796109
0.0045801335
0.0045807516
0.0045812385
0.0045817751
0.0045822144
0.0045826627
0.0045830473
0.0045834316
0.0045838049
0.0045842091
0.0045846437
0.0045850997
0.0045855411
0.0045859395
0.0045862901
0.0045865921
0.0045868495
0.0045870758
0.0045872824
0.0045874867
0.0045876925
0.0045879105
0.0045881455
0.0045883977
0.00458867
0.004588959
0.004589265
0.0045895844
0.0045899194
0.0045902682
0.0045906109
0.0045909369
0.0045912501
0.0045915655
0.0045918928
0.0045922296
0.0045925394
0.0045928091
0.0045930428
0.0045932397
0.0045934128
0.0045935666
0.0045937149
0.0045938614
0.0045940287
0.0045942101
0.0045944319
0.0045946581
0.0045949337
0.0045951845
0.0045954951
0.0045957513
0.0045960881
0.0045963424
0.0045967048
0.004596955
0.0045973442
0.0045975897
0.004598009
0.0045982524
0.004598709
0.0045989542
0.004599456
0.0045997082
0.0046002637
0.0046005254
0.0046011443
0.0046014211
0.0046021209
0.0046024129
0.0046032321
0.0046035385
0.0046045039
0.0043308459
0.0043326685
0.0043331136
0.004334339
0.0043349624
0.0043358788
0.0043365144
0.0043372804
0.0043378736
0.0043385481
0.0043391025
0.004339709
0.0043402334
0.0043407755
0.0043412507
0.0043417081
0.0043421165
0.0043425133
0.0043429115
0.0043433408
0.0043437995
0.0043442778
0.0043447399
0.0043451649
0.0043455483
0.0043458964
0.0043462018
0.0043464792
0.0043467328
0.0043469732
0.0043472111
0.0043474484
0.0043476924
0.004347946
0.004348214
0.0043484976
0.004348805
0.0043491427
0.0043495146
0.0043499196
0.0043503402
0.0043507575
0.0043511506
0.0043515032
0.0043518214
0.0043521059
0.0043523677
0.0043526073
0.0043528339
0.0043530504
0.0043532741
0.0043535095
0.004353772
0.0043540371
0.0043543387
0.0043546253
0.0043549571
0.0043552547
0.0043556151
0.0043559204
0.0043563103
0.0043566195
0.0043570352
0.0043573422
0.0043577826
0.0043580868
0.0043585573
0.004358864
0.0043593741
0.0043596894
0.0043602496
0.0043605812
0.0043612011
0.0043615537
0.0043622464
0.0043626238
0.0043634091
0.0043638058
0.0043647358
0.0043651304
0.0043662756
0.0041099258
0.0041118036
0.0041122989
0.0041135545
0.0041142278
0.0041151715
0.0041158498
0.0041166423
0.0041172661
0.0041179548
0.0041185258
0.0041191419
0.0041196838
0.0041202544
0.0041207777
0.0041213019
0.004121777
0.0041222238
0.0041226287
0.0041230227
0.0041234237
0.004123855
0.0041243095
0.0041247841
0.0041252505
0.0041256868
0.0041260895
0.0041264605
0.0041268001
0.0041271087
0.0041273961
0.0041276642
0.0041279203
0.0041281715
0.0041284245
0.0041286803
0.0041289473
0.0041292341
0.0041295451
0.0041298827
0.0041302347
0.0041305846
0.004130917
0.004131231
0.0041315382
0.0041318445
0.0041321598
0.0041324766
0.0041327993
0.0041331206
0.0041334511
0.0041337757
0.0041341154
0.0041344357
0.004134783
0.0041350993
0.004135463
0.0041357855
0.0041361784
0.0041365126
0.0041369353
0.0041372736
0.0041377182
0.004138053
0.0041385191
0.0041388536
0.0041393505
0.0041396931
0.0041402318
0.0041405894
0.0041411805
0.0041415605
0.0041422138
0.0041426219
0.0041433523
0.0041437912
0.0041446206
0.0041450811
0.0041460704
0.0041465152
0.0041477662
0.0039095636
0.0039114293
0.0039119502
0.0039131943
0.0039138899
0.0039148292
0.0039155233
0.003916313
0.0039169456
0.0039176265
0.0039181927
0.0039187857
0.003919302
0.0039198391
0.0039203345
0.0039208463
0.0039213334
0.003921814
0.0039222566
0.0039226703
0.0039230506
0.0039234258
0.0039238115
0.0039242209
0.0039246517
0.0039251003
0.0039255536
0.003925988
0.003926396
0.0039267772
0.0039271341
0.0039274661
0.003927775
0.0039280678
0.0039283505
0.0039286207
0.0039288834
0.0039291448
0.0039294051
0.00392967
0.0039299398
0.0039302105
0.0039304825
0.0039307656
0.0039310666
0.0039313897
0.0039317385
0.0039320973
0.0039324734
0.0039328398
0.0039332181
0.003933572
0.0039339435
0.0039342811
0.0039346524
0.0039349831
0.0039353693
0.0039357056
0.0039361163
0.0039364588
0.0039368904
0.0039372315
0.0039376793
0.0039380181
0.0039384893
0.0039388346
0.0039393403
0.0039397
0.0039402492
0.0039406285
0.0039412299
0.0039416347
0.0039422981
0.0039427341
0.0039434732
0.0039439424
0.0039447826
0.0039452742
0.0039462808
0.0039467448
0.00394804
0.0037281204
0.0037299206
0.0037304439
0.0037316429
0.0037323323
0.0037332426
0.0037339251
0.003734692
0.0037353167
0.0037359867
0.0037365484
0.0037371257
0.003737625
0.0037381274
0.00373858
0.0037390393
0.0037394771
0.0037399243
0.003740359
0.0037407852
0.0037411838
0.0037415554
0.003741905
0.0037422498
0.0037426054
0.0037429777
0.0037433722
0.0037437828
0.0037442062
0.0037446271
0.0037450284
0.0037454082
0.003745769
0.0037461135
0.0037464446
0.0037467573
0.0037470529
0.0037473327
0.0037475945
0.0037478429
0.0037480874
0.0037483342
0.0037485961
0.003748874
0.0037491776
0.0037494967
0.0037498433
0.0037501897
0.0037505591
0.0037509089
0.0037512815
0.0037516198
0.0037519895
0.0037523157
0.0037526885
0.0037530105
0.0037533962
0.00375372
0.0037541218
0.003754446
0.0037548623
0.0037551853
0.0037556201
0.0037559488
0.0037564132
0.0037567563
0.003757258
0.0037576185
0.0037581625
0.0037585431
0.0037591359
0.0037595416
0.0037601934
0.0037606295
0.0037613533
0.0037618222
0.0037626452
0.003763135
0.0037641232
0.0037645767
0.0037658632
0.0035642752
0.0035659662
0.0035664732
0.0035675962
0.0035682544
0.0035691102
0.0035697566
0.003570481
0.0035710763
0.003571716
0.003572262
0.0035728259
0.0035733178
0.0035738041
0.0035742401
0.003574661
0.0035750543
0.0035754459
0.0035758274
0.0035762142
0.0035765953
0.003576967
0.0035773198
0.0035776488
0.0035779635
0.0035782712
0.0035785872
0.003578916
0.0035792649
0.0035796315
0.00358001
0.0035803947
0.003580778
0.0035811491
0.0035815051
0.0035818466
0.0035821743
0.0035824881
0.003582783
0.0035830625
0.003583335
0.0035836083
0.0035838929
0.0035841751
0.0035844764
0.003584771
0.0035850911
0.0035853959
0.0035857301
0.0035860369
0.0035863771
0.0035866777
0.0035870193
0.0035873124
0.003587659
0.0035879498
0.0035883081
0.0035886007
0.0035889738
0.0035892691
0.0035896596
0.0035899609
0.0035903763
0.0035906912
0.0035911395
0.0035914704
0.0035919533
0.0035922997
0.0035928202
0.0035931843
0.0035937494
0.0035941373
0.0035947568
0.0035951736
0.0035958616
0.0035963091
0.0035970916
0.0035975567
0.0035984972
0.0035989213
0.0036001567
0.0034166112
0.0034181592
0.0034186382
0.0034196621
0.0034202753
0.0034210584
0.0034216565
0.003422323
0.0034228757
0.0034234718
0.0034239902
0.003424532
0.0034250174
0.0034255004
0.0034259418
0.0034263616
0.0034267522
0.0034271274
0.0034274834
0.0034278352
0.0034281795
0.0034285262
0.0034288675
0.0034291997
0.0034295164
0.0034298145
0.0034300997
0.0034303767
0.0034306576
0.0034309478
0.0034312514
0.0034315703
0.0034318993
0.0034322335
0.0034325687
0.0034329017
0.0034332306
0.0034335533
0.0034338665
0.0034341716
0.0034344731
0.0034347662
0.0034350608
0.0034353375
0.0034356251
0.003435891
0.0034361799
0.0034364436
0.0034367396
0.0034370026
0.0034373044
0.0034375634
0.0034378694
0.0034381255
0.003438441
0.0034387004
0.0034390318
0.0034392982
0.0034396479
0.0034399218
0.0034402922
0.003440576
0.0034409722
0.0034412692
0.0034416933
0.003442002
0.0034424542
0.0034427749
0.0034432599
0.003443597
0.0034441231
0.0034444809
0.0034450571
0.0034454392
0.0034460775
0.0034464863
0.0034472118
0.0034476338
0.0034485056
0.0034488846
0.0034500374
0.0032844878
0.0032858694
0.0032863122
0.0032872222
0.0032877799
0.0032884788
0.0032890182
0.0032896165
0.003290112
0.0032906475
0.0032911133
0.0032916084
0.0032920572
0.0032925179
0.0032929456
0.0032933631
0.0032937565
0.0032941336
0.00329449
0.0032948342
0.003295158
0.0032954767
0.0032957869
0.0032960948
0.0032963949
0.0032966864
0.0032969647
0.0032972294
0.0032974825
0.0032977282
0.003297974
0.0032982251
0.0032984847
0.0032987502
0.0032990247
0.0032992994
0.0032995846
0.0032998631
0.0033001529
0.0033004274
0.0033007134
0.0033009755
0.0033012508
0.0033014961
0.0033017604
0.0033019927
0.0033022533
0.00330248
0.0033027434
0.0033029676
0.0033032358
0.0033034587
0.0033037354
0.0033039624
0.0033042542
0.00330449
0.0033047999
0.0033050438
0.0033053703
0.00330562
0.0033059631
0.0033062196
0.0033065822
0.0033068464
0.0033072297
0.0033075014
0.0033079089
0.003308191
0.0033086293
0.0033089267
0.0033094029
0.0033097185
0.0033102395
0.0033105748
0.0033111522
0.0033115084
0.0033121635
0.003312529
0.0033133153
0.0033136352
0.0033146795
0.003167069
0.0031682729
0.0031686743
0.0031694649
0.0031699611
0.003170572
0.0031710465
0.0031715717
0.0031720019
0.0031724674
0.0031728635
0.0031732878
0.0031736664
0.0031740656
0.0031744351
0.0031748173
0.0031751745
0.003175534
0.0031758675
0.0031761966
0.0031764997
0.0031767953
0.0031770725
0.0031773445
0.0031776057
0.0031778618
0.0031781096
0.003178348
0.0031785789
0.0031787979
0.0031790146
0.0031792221
0.0031794368
0.0031796449
0.0031798682
0.003180083
0.0031803167
0.0031805365
0.0031807767
0.0031809963
0.0031812373
0.003181451
0.0031816886
0.0031818936
0.0031821273
0.0031823247
0.0031825575
0.0031827504
0.0031829855
0.0031831766
0.003183418
0.0031836119
0.0031838653
0.0031840669
0.0031843358
0.0031845447
0.0031848265
0.0031850383
0.00318533
0.0031855428
0.0031858457
0.0031860618
0.0031863799
0.0031866011
0.0031869374
0.0031871657
0.0031875251
0.0031877637
0.0031881515
0.0031884033
0.0031888243
0.00318909
0.0031895497
0.00318983
0.0031903391
0.0031906341
0.0031912102
0.0031915107
0.0031921998
0.0031924531
0.0031933728
0.0030634812
0.0030645026
0.0030648594
0.0030655296
0.0030659599
0.003066482
0.0030668884
0.0030673389
0.0030677038
0.0030681013
0.00306843
0.0030687845
0.0030690874
0.003069412
0.0030697
0.0030700072
0.0030702876
0.0030705828
0.0030708552
0.0030711358
0.0030713945
0.0030716531
0.0030718928
0.0030721281
0.003072351
0.0030725677
0.0030727785
0.0030729803
0.0030731803
0.0030733671
0.0030735567
0.0030737312
0.0030739155
0.0030740848
0.003074271
0.003074441
0.0030746325
0.0030748042
0.0030750002
0.0030751717
0.0030753702
0.0030755396
0.0030757395
0.0030759062
0.0030761073
0.0030762711
0.0030764739
0.0030766356
0.003076842
0.0030770041
0.003077218
0.0030773843
0.0030776092
0.0030777807
0.0030780155
0.0030781885
0.0030784295
0.0030786009
0.0030788484
0.00307902
0.0030792783
0.0030794538
0.0030797265
0.0030799074
0.0030801972
0.0030803847
0.0030806947
0.00308089
0.0030812238
0.0030814279
0.003081789
0.0030820015
0.0030823955
0.003082617
0.0030830539
0.0030832836
0.0030837774
0.0030840075
0.0030845933
0.0030847788
0.0030855556
0.0029725456
0.0029733793
0.0029736817
0.0029742285
0.0029745857
0.002975016
0.0029753498
0.0029757242
0.0029760249
0.0029763567
0.0029766278
0.0029769221
0.002977167
0.0029774298
0.002977654
0.0029778929
0.0029781043
0.0029783286
0.0029785344
0.0029787493
0.002978951
0.0029791555
0.00297935
0.0029795414
0.0029797268
0.0029799055
0.0029800833
0.0029802512
0.0029804222
0.0029805792
0.0029807426
0.0029808886
0.0029810459
0.0029811844
0.0029813401
0.0029814756
0.0029816331
0.0029817677
0.0029819278
0.0029820616
0.002982224
0.0029823568
0.0029825219
0.0029826537
0.0029828212
0.0029829517
0.002983122
0.0029832516
0.002983426
0.0029835565
0.0029837374
0.00298387
0.0029840578
0.0029841909
0.0029843834
0.0029845144
0.0029847109
0.0029848406
0.0029850446
0.0029851764
0.0029853916
0.002985527
0.0029857547
0.0029858931
0.0029861344
0.0029862757
0.0029865329
0.0029866776
0.0029869537
0.0029871018
0.0029874
0.0029875513
0.0029878771
0.0029880324
0.0029883942
0.0029885538
0.0029889626
0.0029891208
0.0029896008
0.0029897288
0.0029903464
0.0028943485
0.0028949884
0.0028952399
0.0028956579
0.0028959407
0.0028962741
0.0028965335
0.0028968232
0.0028970561
0.0028973147
0.0028975267
0.0028977587
0.002897952
0.00289816
0.0028983361
0.0028985226
0.0028986842
0.0028988537
0.002899006
0.0028991642
0.0028993117
0.0028994622
0.0028996066
0.0028997502
0.0028998914
0.0029000285
0.0029001671
0.0029002986
0.0029004349
0.0029005601
0.0029006924
0.0029008097
0.002900937
0.0029010467
0.0029011706
0.0029012754
0.0029013986
0.0029015006
0.0029016246
0.0029017245
0.0029018499
0.0029019483
0.0029020755
0.0029021724
0.0029023015
0.0029023968
0.0029025284
0.0029026225
0.0029027573
0.0029028508
0.0029029896
0.002903082
0.0029032242
0.0029033141
0.0029034591
0.0029035462
0.0029036958
0.0029037822
0.0029039394
0.0029040263
0.0029041918
0.0029042779
0.0029044516
0.0029045356
0.0029047188
0.0029048009
0.0029049962
0.0029050767
0.0029052863
0.0029053641
0.0029055907
0.0029056643
0.0029059125
0.0029059801
0.0029062574
0.0029063162
0.0029066312
0.0029066713
0.0029070401
0.0029070424
0.0029074967
0.0028312979
0.0028317725
0.0028319476
0.0028322556
0.0028324549
0.002832706
0.0028328856
0.0028331017
0.0028332641
0.0028334539
0.0028336037
0.0028337738
0.0028339136
0.0028340677
0.0028341984
0.0028343379
0.0028344596
0.0028345855
0.0028346989
0.0028348138
0.0028349215
0.0028350288
0.0028351329
0.0028352345
0.0028353362
0.0028354328
0.0028355327
0.0028356256
0.0028357246
0.0028358142
0.0028359119
0.0028359975
0.0028360928
0.0028361735
0.0028362662
0.0028363431
0.0028364347
0.0028365091
0.0028366006
0.0028366734
0.0028367655
0.0028368371
0.0028369301
0.0028370005
0.0028370947
0.0028371642
0.00283726
0.0028373288
0.0028374267
0.0028374951
0.0028375952
0.0028376626
0.0028377648
0.0028378311
0.0028379362
0.0028380025
0.0028381122
0.0028381797
0.002838295
0.0028383632
0.0028384837
0.0028385516
0.0028386778
0.0028387465
0.0028388803
0.0028389513
0.0028390951
0.0028391685
0.0028393239
0.0028393993
0.0028395679
0.0028396453
0.0028398304
0.0028399101
0.0028401171
0.0028401975
0.0028404323
0.0028405029
0.0028407792
0.0028408161
0.002841165
0.0027747487
0.0027751493
0.0027754342
0.0027756614
0.0027759262
0.0027761083
0.0027763354
0.0027764928
0.0027766883
0.0027768273
0.0027769991
0.002777124
0.0027772783
0.0027773928
0.002777534
0.0027776401
0.0027777702
0.0027778684
0.0027779886
0.0027780797
0.0027781918
0.0027782772
0.0027783848
0.0027784673
0.0027785709
0.0027786503
0.00277875
0.0027788263
0.002778923
0.0027789972
0.0027790919
0.0027791644
0.002779257
0.0027793272
0.0027794177
0.0027794843
0.0027795724
0.0027796363
0.0027797227
0.0027797841
0.0027798693
0.0027799286
0.0027800131
0.0027800705
0.0027801546
0.0027802101
0.0027802942
0.0027803479
0.0027804324
0.002780484
0.002780569
0.0027806186
0.0027807049
0.0027807531
0.0027808416
0.0027808889
0.0027809805
0.0027810266
0.0027811213
0.0027811652
0.0027812629
0.0027813044
0.0027814063
0.0027814462
0.002781554
0.002781592
0.0027817057
0.0027817399
0.0027818594
0.0027818885
0.0027820141
0.0027820363
0.0027821684
0.002782183
0.0027823217
0.0027823273
0.0027824663
0.0027824648
0.002782588
0.0027825804
0.0027827069
0.0026941282
0.0026942027
0.0026943745
0.0026945163
0.0026946669
0.0026948092
0.0026949466
0.0026950761
0.0026951973
0.0026953103
0.0026954151
0.0026955123
0.0026956024
0.0026956861
0.0026957639
0.002695836
0.0026959026
0.002695964
0.0026960204
0.0026960721
0.0026961194
0.0026961631
0.0026962002
0.0026962353
0.0026962652
0.0026962927
0.0026963155
0.0026963355
0.0026963517
0.0026963649
0.0026963752
0.002696382
0.0026963864
0.0026963861
0.0026963834
0.0026963776
0.0026963694
0.0026963591
0.0026963464
0.0026963317
0.0026963146
0.0026962955
0.002696274
0.0026962504
0.0026962243
0.0026961959
0.0026961648
0.0026961312
0.0026960946
0.0026960557
0.0026960147
0.0026959706
0.0026959226
0.0026958707
0.0026958146
0.0026957541
0.0026956888
0.0026956183
0.0026955421
0.0026954596
0.0026953705
0.0026952746
0.0026951715
0.0026950609
0.0026949421
0.0026948141
0.0026946753
0.0026945246
0.0026943612
0.0026941841
0.002693992
0.002693783
0.0026935565
0.0026933107
0.0026930454
0.002692758
0.0026924529
0.0026921203
0.0026917709
0.0026914095
0.0026910036
0.0027324767
0.002731687
0.0027311999
0.0027306453
0.0027301354
0.0027296688
0.0027291939
0.0027287797
0.0027283511
0.0027279772
0.0027275914
0.0027272519
0.0027269012
0.0027265915
0.0027262726
0.002725991
0.0027257021
0.0027254461
0.0027251838
0.0027249501
0.0027247106
0.0027244963
0.0027242765
0.0027240785
0.0027238761
0.0027236923
0.0027235051
0.0027233336
0.0027231597
0.002722999
0.0027228369
0.0027226855
0.0027225338
0.0027223906
0.0027222482
0.002722112
0.0027219779
0.0027218478
0.0027217211
0.0027215964
0.0027214764
0.0027213564
0.0027212422
0.0027211264
0.002721018
0.002720906
0.0027208032
0.002720695
0.0027205977
0.002720493
0.0027204013
0.0027203003
0.0027202149
0.002720118
0.0027200391
0.002719946
0.0027198732
0.002719783
0.002719716
0.0027196294
0.0027195707
0.0027194898
0.0027194406
0.0027193653
0.0027193234
0.0027192476
0.0027192077
0.0027191308
0.0027190977
0.0027190218
0.0027189965
0.0027189235
0.0027189081
0.0027188274
0.0027188202
0.0027187181
0.0027187137
0.0027185531
0.0027185497
0.0027182852
0.0027181589
0.0031296404
0.0031304234
0.0031304082
0.0031309032
0.0031309
0.0031312726
0.0031312719
0.0031315891
0.0031315934
0.0031318826
0.0031318945
0.0031321646
0.0031321846
0.0031324388
0.0031324672
0.0031327084
0.0031327449
0.0031329754
0.0031330196
0.0031332407
0.003133292
0.0031335055
0.0031335637
0.0031337707
0.0031338354
0.0031340364
0.003134107
0.0031343033
0.0031343794
0.0031345719
0.0031346539
0.0031348434
0.0031349315
0.0031351187
0.0031352125
0.0031353983
0.0031354981
0.0031356835
0.0031357896
0.0031359755
0.0031360884
0.0031362759
0.0031363957
0.003136585
0.0031367125
0.0031369049
0.0031370411
0.0031372376
0.0031373836
0.0031375856
0.0031377429
0.0031379521
0.0031381223
0.0031383404
0.0031385254
0.0031387542
0.0031389561
0.003139198
0.0031394195
0.0031396782
0.0031399233
0.0031402023
0.0031404745
0.0031407778
0.0031410804
0.0031414111
0.0031417504
0.0031421212
0.0031425106
0.0031429336
0.0031433808
0.0031438556
0.0031443547
0.0031448827
0.0031454414
0.0031460338
0.0031466633
0.0031473297
0.0031480543
0.0031487608
0.0031497286
0.0017039791
0.0017059167
0.0017060828
0.0017077197
0.001707941
0.0017093383
0.0017095749
0.0017107765
0.0017110107
0.0017120526
0.0017122772
0.0017131888
0.0017134006
0.0017142057
0.0017144045
0.0017151212
0.0017153081
0.0017159506
0.0017161268
0.0017167081
0.0017168747
0.0017174037
0.0017175612
0.0017180457
0.0017181953
0.0017186415
0.0017187846
0.001719198
0.0017193351
0.0017197201
0.0017198519
0.0017202117
0.0017203387
0.0017206764
0.001720799
0.0017211173
0.0017212358
0.0017215367
0.0017216514
0.0017219366
0.0017220475
0.0017223185
0.0017224263
0.0017226846
0.0017227891
0.0017230351
0.0017231364
0.0017233705
0.0017234683
0.0017236908
0.001723785
0.0017239956
0.0017240858
0.0017242842
0.0017243698
0.0017245553
0.0017246355
0.0017248069
0.0017248808
0.0017250367
0.001725103
0.001725241
0.001725298
0.001725415
0.00172546
0.0017255517
0.0017255834
0.0017256477
0.0017256632
0.0017256915
0.0017256839
0.0017256652
0.0017256228
0.0017255569
0.0017254741
0.0017253781
0.0017252662
0.0017251421
0.0017250048
0.0017248557
0.0017247425
0.025393694
0.025398945
0.02540312
0.02540765
0.025411979
0.025416338
0.025420627
0.025424883
0.02542909
0.025433255
0.025437374
0.025441447
0.025445474
0.025449454
0.025453386
0.02545727
0.025461106
0.025464891
0.025468626
0.025472309
0.02547594
0.025479518
0.025483041
0.02548651
0.025489923
0.025493278
0.025496576
0.025499815
0.025502993
0.025506111
0.025509167
0.02551216
0.025515088
0.025517953
0.025520751
0.025523485
0.025526154
0.025528756
0.025531289
0.025533753
0.025536149
0.025538475
0.025540732
0.025542919
0.025545037
0.025547084
0.025549063
0.025550971
0.025552811
0.025554581
0.025556283
0.025557916
0.025559482
0.02556098
0.02556241
0.025563775
0.025565072
0.025566304
0.025567471
0.025568573
0.02556961
0.025570583
0.025571493
0.025572339
0.025573123
0.025573845
0.025574505
0.025575104
0.025575642
0.02557612
0.02557654
0.025576902
0.025577209
0.025577463
0.025577664
0.025577821
0.02557795
0.025578042
0.025578099
0.025578123
0.025578128
0.02367356
0.023678227
0.023681913
0.023685913
0.023689729
0.023693565
0.023697331
0.023701063
0.023704748
0.02370839
0.023711987
0.023715541
0.02371905
0.023722514
0.023725934
0.023729309
0.023732639
0.023735923
0.02373916
0.023742352
0.023745496
0.023748593
0.023751643
0.023754644
0.023757597
0.023760501
0.023763356
0.023766161
0.023768916
0.02377162
0.023774274
0.023776877
0.023779428
0.023781928
0.023784376
0.023786772
0.023789118
0.023791412
0.023793654
0.023795842
0.023797976
0.023800057
0.023802084
0.023804057
0.023805976
0.02380784
0.02380965
0.023811405
0.023813105
0.023814751
0.023816341
0.023817877
0.023819357
0.023820782
0.023822152
0.023823468
0.023824728
0.023825933
0.023827084
0.02382818
0.023829221
0.023830207
0.023831139
0.023832017
0.023832841
0.02383361
0.023834326
0.023834988
0.023835596
0.02383615
0.023836651
0.0238371
0.023837495
0.02383784
0.023838133
0.023838379
0.023838562
0.023838703
0.023838796
0.023838839
0.023838839
0.022067945
0.022072025
0.022075216
0.022078691
0.022081991
0.022085303
0.022088549
0.02209176
0.022094925
0.022098049
0.022101131
0.022104171
0.022107169
0.022110126
0.022113043
0.022115917
0.022118751
0.022121543
0.022124294
0.022127004
0.022129672
0.022132298
0.022134883
0.022137425
0.022139925
0.022142383
0.022144798
0.02214717
0.022149499
0.022151785
0.022154028
0.022156227
0.022158382
0.022160493
0.022162561
0.022164583
0.022166563
0.0221685
0.022170392
0.02217224
0.022174042
0.022175798
0.02217751
0.022179176
0.022180796
0.02218237
0.022183899
0.022185381
0.022186818
0.022188209
0.022189553
0.022190852
0.022192105
0.022193311
0.022194472
0.022195587
0.022196655
0.022197678
0.022198656
0.022199587
0.022200473
0.022201314
0.022202109
0.022202858
0.022203563
0.022204222
0.022204836
0.022205404
0.022205928
0.022206406
0.022206839
0.022207227
0.022207571
0.022207871
0.022208127
0.022208341
0.022208504
0.022208629
0.022208712
0.02220875
0.022208749
0.020563569
0.020567181
0.020569985
0.020573042
0.020575936
0.020578834
0.02058167
0.02058447
0.020587226
0.020589942
0.020592618
0.020595254
0.020597852
0.02060041
0.020602931
0.020605413
0.020607858
0.020610265
0.020612634
0.020614967
0.020617262
0.020619519
0.02062174
0.020623924
0.02062607
0.020628179
0.020630251
0.020632286
0.020634283
0.020636243
0.020638166
0.020640051
0.020641898
0.020643708
0.02064548
0.020647214
0.020648909
0.020650569
0.020652192
0.020653776
0.020655322
0.020656829
0.020658297
0.020659727
0.020661119
0.020662471
0.020663785
0.02066506
0.020666296
0.020667493
0.020668651
0.02066977
0.020670851
0.020671892
0.020672895
0.020673858
0.020674783
0.020675669
0.020676516
0.020677325
0.020678094
0.020678825
0.020679517
0.02068017
0.020680785
0.020681361
0.020681898
0.020682396
0.020682856
0.020683276
0.020683657
0.020684
0.020684303
0.020684568
0.020684796
0.020684984
0.02068513
0.020685241
0.020685315
0.020685349
0.020685349
0.019156619
0.019159809
0.019162263
0.019164945
0.019167472
0.019170001
0.019172469
0.019174902
0.019177294
0.019179647
0.019181962
0.01918424
0.019186481
0.019188687
0.019190857
0.019192992
0.019195093
0.019197159
0.019199192
0.019201191
0.019203157
0.019205089
0.019206989
0.019208856
0.01921069
0.019212492
0.019214261
0.019215998
0.019217703
0.019219375
0.019221015
0.019222622
0.019224198
0.019225741
0.019227251
0.01922873
0.019230175
0.019231589
0.019232973
0.019234324
0.019235643
0.019236929
0.019238182
0.019239403
0.019240591
0.019241747
0.019242869
0.019243959
0.019245017
0.019246041
0.019247033
0.019247992
0.019248919
0.019249812
0.019250673
0.019251501
0.019252297
0.019253059
0.019253789
0.019254487
0.019255151
0.019255783
0.019256382
0.019256948
0.019257482
0.019257982
0.01925845
0.019258884
0.019259285
0.019259653
0.019259987
0.019260288
0.019260555
0.019260789
0.019260991
0.019261155
0.019261286
0.019261385
0.019261452
0.019261483
0.019261482
0.017839792
0.017842615
0.017844768
0.017847125
0.017849337
0.017851547
0.0178537
0.01785582
0.017857899
0.017859942
0.017861949
0.017863921
0.017865859
0.017867764
0.017869636
0.017871476
0.017873284
0.017875061
0.017876808
0.017878525
0.017880211
0.017881868
0.017883496
0.017885095
0.017886665
0.017888207
0.01788972
0.017891206
0.017892663
0.017894092
0.017895493
0.017896866
0.017898211
0.017899529
0.017900819
0.017902081
0.017903316
0.017904523
0.017905705
0.017906859
0.017907986
0.017909085
0.017910157
0.017911201
0.017912217
0.017913206
0.017914168
0.017915102
0.017916008
0.017916887
0.017917738
0.017918561
0.017919358
0.017920126
0.017920867
0.01792158
0.017922266
0.017922924
0.017923555
0.017924158
0.017924733
0.017925281
0.017925801
0.017926293
0.017926758
0.017927194
0.017927602
0.017927982
0.017928334
0.017928657
0.017928951
0.017929216
0.017929452
0.017929658
0.017929838
0.01792998
0.017930098
0.017930186
0.017930245
0.017930273
0.017930271
0.016607673
0.016610173
0.016612059
0.016614131
0.016616066
0.016617997
0.016619874
0.016621719
0.016623525
0.016625298
0.016627036
0.016628742
0.016630417
0.01663206
0.016633674
0.016635258
0.016636813
0.016638341
0.016639841
0.016641314
0.01664276
0.01664418
0.016645575
0.016646944
0.016648287
0.016649606
0.0166509
0.01665217
0.016653415
0.016654636
0.016655832
0.016657005
0.016658154
0.016659279
0.016660381
0.016661458
0.016662513
0.016663543
0.016664552
0.016665538
0.016666501
0.01666744
0.016668356
0.016669249
0.016670119
0.016670965
0.016671789
0.016672589
0.016673366
0.01667412
0.01667485
0.016675558
0.016676243
0.016676904
0.016677542
0.016678157
0.016678749
0.016679318
0.016679863
0.016680385
0.016680884
0.01668136
0.016681812
0.01668224
0.016682645
0.016683026
0.016683384
0.016683717
0.016684025
0.016684309
0.016684568
0.016684802
0.01668501
0.016685194
0.016685352
0.016685479
0.016685584
0.016685663
0.016685716
0.016685741
0.01668574
0.015454622
0.015456839
0.015458493
0.015460316
0.01546201
0.015463699
0.015465338
0.015466945
0.015468517
0.015470056
0.015471563
0.015473041
0.015474488
0.015475908
0.0154773
0.015478665
0.015480004
0.015481317
0.015482606
0.01548387
0.015485111
0.015486328
0.015487522
0.015488694
0.015489844
0.015490971
0.015492077
0.015493162
0.015494225
0.015495268
0.015496289
0.01549729
0.01549827
0.01549923
0.015500169
0.015501088
0.015501988
0.015502866
0.015503726
0.015504568
0.01550539