/*--------------------------------*- C++ -*----------------------------------*\
| =========                 |                                                 |
| \\      /  F ield         | OpenFOAM: The Open Source CFD Toolbox           |
|  \\    /   O peration     | Version:  v2006                                 |
|   \\  /    A nd           | Website:  www.openfoam.com                      |
|    \\/     M anipulation  |                                                 |
\*---------------------------------------------------------------------------*/
FoamFile
{
    version     2.0;
    format      ascii;
    class       volScalarField;
    location    "10000";
    object      k;
}
// * * * * * * * * * * * * * * * * * * * * * * * * * * * * * * * * * * * * * //

dimensions      [0 2 -2 0 0 0 0];


internalField   nonuniform List<scalar> 
102907
(
5.3220703e-10
1.0687999e-09
4.4593224e-09
9.2762841e-09
1.3824894e-08
1.7340514e-08
1.9767806e-08
2.1330069e-08
2.2287877e-08
2.2853423e-08
2.3176607e-08
2.3355335e-08
2.3450366e-08
2.3498057e-08
2.3519506e-08
2.3526663e-08
2.3526257e-08
2.3521996e-08
2.3515884e-08
2.3508986e-08
2.3501865e-08
2.3494807e-08
2.3487963e-08
2.3481406e-08
2.3475176e-08
2.346929e-08
2.3463758e-08
2.3458586e-08
2.3453779e-08
2.3449337e-08
2.3445266e-08
2.3441567e-08
2.3438244e-08
2.3435296e-08
2.3432727e-08
2.3430531e-08
2.3428707e-08
2.342724e-08
2.3426117e-08
2.3425319e-08
2.3424852e-08
2.3424905e-08
2.3425582e-08
2.3426792e-08
2.3428457e-08
2.3430527e-08
2.3432984e-08
2.3435807e-08
2.3438994e-08
2.3442537e-08
2.3446439e-08
2.3450696e-08
2.3455311e-08
2.3460282e-08
2.3465613e-08
2.3471303e-08
2.3477357e-08
2.3483773e-08
2.349056e-08
2.3497714e-08
2.3505246e-08
2.3513155e-08
2.3521452e-08
2.3530138e-08
2.3539229e-08
2.3548728e-08
2.3558652e-08
2.3569011e-08
2.3579827e-08
2.3591113e-08
2.3602896e-08
2.3615199e-08
2.3628056e-08
2.3641496e-08
2.3655568e-08
2.3670317e-08
2.3685813e-08
2.3702138e-08
2.3719409e-08
2.3737796e-08
2.3757557e-08
5.2076519e-10
1.2988033e-09
5.2611709e-09
1.0537221e-08
1.5254274e-08
1.8732253e-08
2.1036503e-08
2.2465473e-08
2.3311811e-08
2.379523e-08
2.406243e-08
2.420496e-08
2.4277438e-08
2.4311447e-08
2.4324708e-08
2.4326944e-08
2.4323552e-08
2.431742e-08
2.4310066e-08
2.4302278e-08
2.4294459e-08
2.4286814e-08
2.4279444e-08
2.42724e-08
2.4265707e-08
2.4259376e-08
2.4253414e-08
2.4247824e-08
2.4242608e-08
2.423777e-08
2.423331e-08
2.4229232e-08
2.4225537e-08
2.4222226e-08
2.42193e-08
2.4216756e-08
2.4214589e-08
2.4212786e-08
2.4211328e-08
2.421019e-08
2.4209357e-08
2.4208966e-08
2.4209385e-08
2.4210309e-08
2.4211684e-08
2.4213459e-08
2.4215622e-08
2.4218149e-08
2.422104e-08
2.4224288e-08
2.4227894e-08
2.4231854e-08
2.4236171e-08
2.4240844e-08
2.4245875e-08
2.4251262e-08
2.4257011e-08
2.4263121e-08
2.4269596e-08
2.4276437e-08
2.4283648e-08
2.429123e-08
2.4299193e-08
2.4307537e-08
2.4316274e-08
2.4325409e-08
2.4334953e-08
2.4344918e-08
2.4355319e-08
2.4366169e-08
2.4377492e-08
2.4389306e-08
2.4401639e-08
2.4414519e-08
2.4427985e-08
2.4442078e-08
2.4456858e-08
2.44724e-08
2.4488812e-08
2.4506266e-08
2.4525016e-08
5.1707116e-10
1.5861815e-09
6.1922026e-09
1.1926718e-08
1.6771954e-08
2.0175226e-08
2.2336054e-08
2.3625409e-08
2.4361954e-08
2.4768121e-08
2.4984623e-08
2.5095413e-08
2.5148654e-08
2.5171267e-08
2.5177828e-08
2.5176047e-08
2.5170218e-08
2.5162537e-08
2.5154122e-08
2.5145542e-08
2.5137078e-08
2.512887e-08
2.5120987e-08
2.511346e-08
2.5106305e-08
2.5099528e-08
2.5093133e-08
2.5087121e-08
2.5081494e-08
2.5076254e-08
2.5071401e-08
2.5066938e-08
2.5062867e-08
2.5059187e-08
2.50559e-08
2.5053001e-08
2.5050486e-08
2.504834e-08
2.5046543e-08
2.5045064e-08
2.5043872e-08
2.5042963e-08
2.5043145e-08
2.5043793e-08
2.504487e-08
2.5046341e-08
2.5048204e-08
2.5050427e-08
2.5053016e-08
2.5055958e-08
2.5059259e-08
2.5062913e-08
2.5066924e-08
2.5071288e-08
2.5076009e-08
2.5081085e-08
2.5086519e-08
2.509231e-08
2.5098463e-08
2.5104976e-08
2.5111855e-08
2.5119098e-08
2.5126714e-08
2.5134703e-08
2.5143074e-08
2.5151829e-08
2.5160981e-08
2.5170536e-08
2.5180508e-08
2.5190908e-08
2.5201755e-08
2.5213063e-08
2.5224857e-08
2.5237159e-08
2.5250001e-08
2.526342e-08
2.5277464e-08
2.5292205e-08
2.5307737e-08
2.5324238e-08
2.5341963e-08
5.237598e-10
1.9451605e-09
7.2692648e-09
1.3450414e-08
1.8376208e-08
2.1667061e-08
2.3666501e-08
2.4812592e-08
2.5442877e-08
2.5777598e-08
2.5948963e-08
2.6032401e-08
2.6069505e-08
2.6082787e-08
2.6083947e-08
2.6078897e-08
2.6071092e-08
2.6062127e-08
2.6052798e-08
2.6043504e-08
2.6034435e-08
2.6025686e-08
2.6017299e-08
2.6009293e-08
2.6001677e-08
2.5994453e-08
2.5987623e-08
2.5981187e-08
2.5975147e-08
2.5969502e-08
2.5964254e-08
2.5959404e-08
2.5954953e-08
2.5950901e-08
2.5947249e-08
2.5943992e-08
2.5941124e-08
2.5938632e-08
2.5936493e-08
2.5934673e-08
2.5933126e-08
2.5931797e-08
2.5931468e-08
2.5931915e-08
2.5932748e-08
2.5933904e-08
2.5935464e-08
2.5937374e-08
2.5939653e-08
2.5942283e-08
2.5945272e-08
2.5948611e-08
2.5952306e-08
2.5956352e-08
2.5960752e-08
2.5965505e-08
2.5970612e-08
2.5976073e-08
2.5981891e-08
2.5988066e-08
2.5994599e-08
2.6001492e-08
2.6008747e-08
2.6016367e-08
2.6024358e-08
2.6032722e-08
2.6041466e-08
2.6050597e-08
2.6060124e-08
2.6070058e-08
2.6080411e-08
2.6091198e-08
2.6102435e-08
2.6114142e-08
2.6126342e-08
2.6139067e-08
2.6152355e-08
2.6166274e-08
2.6180904e-08
2.6196431e-08
2.6213113e-08
5.4118611e-10
2.3933625e-09
8.5104256e-09
1.5112964e-08
2.0064723e-08
2.3205828e-08
2.5028943e-08
2.6030939e-08
2.6560226e-08
2.6830042e-08
2.6961941e-08
2.702223e-08
2.704603e-08
2.7051945e-08
2.7048549e-08
2.704096e-08
2.7031569e-08
2.7021533e-08
2.7011406e-08
2.7001461e-08
2.6991821e-08
2.6982549e-08
2.6973667e-08
2.6965187e-08
2.6957112e-08
2.6949443e-08
2.694218e-08
2.6935321e-08
2.6928867e-08
2.6922817e-08
2.6917173e-08
2.6911935e-08
2.6907103e-08
2.6902679e-08
2.6898659e-08
2.6895042e-08
2.689182e-08
2.6888979e-08
2.6886496e-08
2.6884336e-08
2.6882447e-08
2.6880774e-08
2.6879811e-08
2.6879988e-08
2.6880547e-08
2.6881471e-08
2.6882736e-08
2.688432e-08
2.6886285e-08
2.6888593e-08
2.6891262e-08
2.6894277e-08
2.6897647e-08
2.6901365e-08
2.6905434e-08
2.6909853e-08
2.6914622e-08
2.6919742e-08
2.6925214e-08
2.6931037e-08
2.6937213e-08
2.6943741e-08
2.6950623e-08
2.6957861e-08
2.6965456e-08
2.6973414e-08
2.6981735e-08
2.6990426e-08
2.6999493e-08
2.7008944e-08
2.7018787e-08
2.7029035e-08
2.7039697e-08
2.705079e-08
2.7062328e-08
2.707434e-08
2.7086852e-08
2.7099927e-08
2.7113633e-08
2.7128163e-08
2.7143784e-08
5.7108389e-10
2.9527576e-09
9.9346656e-09
1.6917671e-08
2.1834581e-08
2.4790186e-08
2.6425674e-08
2.7285635e-08
2.7720741e-08
2.7932716e-08
2.8030778e-08
2.8071864e-08
2.8084855e-08
2.8085004e-08
2.8078019e-08
2.8068385e-08
2.8057705e-08
2.8046761e-08
2.8035928e-08
2.8025382e-08
2.8015202e-08
2.8005424e-08
2.7996059e-08
2.7987114e-08
2.7978587e-08
2.7970478e-08
2.7962785e-08
2.7955507e-08
2.7948642e-08
2.7942191e-08
2.7936154e-08
2.7930529e-08
2.7925318e-08
2.7920521e-08
2.7916135e-08
2.7912158e-08
2.7908581e-08
2.7905391e-08
2.7902564e-08
2.7900063e-08
2.7897833e-08
2.7895817e-08
2.7894393e-08
2.789409e-08
2.7894343e-08
2.7894971e-08
2.7895957e-08
2.7897284e-08
2.7898942e-08
2.7900914e-08
2.7903259e-08
2.790594e-08
2.7908976e-08
2.7912357e-08
2.7916085e-08
2.7920161e-08
2.792458e-08
2.7929349e-08
2.7934461e-08
2.7939922e-08
2.7945726e-08
2.7951877e-08
2.7958371e-08
2.7965212e-08
2.7972398e-08
2.7979934e-08
2.7987816e-08
2.7996052e-08
2.8004641e-08
2.8013593e-08
2.8022908e-08
2.8032599e-08
2.8042667e-08
2.8053127e-08
2.8063984e-08
2.8075262e-08
2.8086977e-08
2.8099185e-08
2.8111944e-08
2.8125453e-08
2.8139996e-08
6.1566096e-10
3.6504981e-09
1.1561511e-08
1.8866278e-08
2.3682499e-08
2.641973e-08
2.7860448e-08
2.8583293e-08
2.8932349e-08
2.9093842e-08
2.9163499e-08
2.9189005e-08
2.919387e-08
2.9188689e-08
2.917922e-08
2.9168035e-08
2.9156311e-08
2.9144594e-08
2.9133127e-08
2.9122026e-08
2.9111332e-08
2.9101069e-08
2.9091237e-08
2.9081839e-08
2.9072871e-08
2.9064332e-08
2.9056218e-08
2.9048529e-08
2.9041261e-08
2.9034416e-08
2.902799e-08
2.9021986e-08
2.90164e-08
2.9011235e-08
2.9006486e-08
2.9002152e-08
2.8998222e-08
2.8994686e-08
2.8991515e-08
2.8988676e-08
2.8986107e-08
2.8983753e-08
2.8981998e-08
2.8981151e-08
2.8980986e-08
2.898131e-08
2.8981985e-08
2.8983006e-08
2.8984376e-08
2.8986078e-08
2.8988106e-08
2.8990436e-08
2.8993137e-08
2.8996169e-08
2.8999548e-08
2.900327e-08
2.9007329e-08
2.9011735e-08
2.9016477e-08
2.9021561e-08
2.9026981e-08
2.9032741e-08
2.9038833e-08
2.9045263e-08
2.9052025e-08
2.9059123e-08
2.9066551e-08
2.9074314e-08
2.9082409e-08
2.9090843e-08
2.9099613e-08
2.9108727e-08
2.9118182e-08
2.9127989e-08
2.9138145e-08
2.9148667e-08
2.9159564e-08
2.9170882e-08
2.9182673e-08
2.9195136e-08
2.9208587e-08
6.7840347e-10
4.5199322e-09
1.341046e-08
2.0958719e-08
2.5605083e-08
2.8095334e-08
2.9338718e-08
2.993207e-08
3.0204229e-08
3.0322652e-08
3.0369023e-08
3.0382108e-08
3.0380568e-08
3.0371645e-08
3.0360128e-08
3.034769e-08
3.0335103e-08
3.0322716e-08
3.0310682e-08
3.0299064e-08
3.028789e-08
3.0277163e-08
3.0266886e-08
3.0257053e-08
3.0247662e-08
3.0238708e-08
3.0230189e-08
3.0222102e-08
3.0214445e-08
3.0207216e-08
3.0200414e-08
3.0194039e-08
3.0188089e-08
3.0182563e-08
3.017746e-08
3.0172774e-08
3.0168499e-08
3.0164621e-08
3.0161114e-08
3.0157941e-08
3.015504e-08
3.0152351e-08
3.0150274e-08
3.0149067e-08
3.0148301e-08
3.0148285e-08
3.014864e-08
3.0149342e-08
3.0150393e-08
3.0151779e-08
3.0153504e-08
3.0155552e-08
3.0157925e-08
3.0160593e-08
3.0163617e-08
3.0166976e-08
3.0170664e-08
3.0174695e-08
3.0179055e-08
3.0183749e-08
3.0188774e-08
3.0194129e-08
3.0199805e-08
3.0205807e-08
3.021213e-08
3.0218774e-08
3.0225732e-08
3.0233005e-08
3.0240589e-08
3.0248487e-08
3.0256692e-08
3.026521e-08
3.0274034e-08
3.0283168e-08
3.0292603e-08
3.0302348e-08
3.0312404e-08
3.0322811e-08
3.033361e-08
3.0345004e-08
3.0357349e-08
7.6458271e-10
5.6017058e-09
1.5500262e-08
2.3193006e-08
2.7599246e-08
2.98196e-08
3.0867918e-08
3.1341832e-08
3.1546915e-08
3.1629508e-08
3.1657287e-08
3.1661186e-08
3.1654006e-08
3.1642562e-08
3.162955e-08
3.1616144e-08
3.1602849e-08
3.1589887e-08
3.1577345e-08
3.1565259e-08
3.1553636e-08
3.154248e-08
3.1531783e-08
3.1521544e-08
3.1511753e-08
3.1502409e-08
3.1493506e-08
3.1485043e-08
3.1477014e-08
3.1469422e-08
3.146226e-08
3.1455532e-08
3.1449231e-08
3.1443361e-08
3.1437914e-08
3.1432891e-08
3.1428279e-08
3.142407e-08
3.1420235e-08
3.1416738e-08
3.1413512e-08
3.14105e-08
3.1408105e-08
3.1406552e-08
3.1405421e-08
3.1404783e-08
3.1404823e-08
3.1405209e-08
3.1405938e-08
3.1406998e-08
3.1408392e-08
3.141011e-08
3.1412157e-08
3.1414522e-08
3.1417208e-08
3.1420196e-08
3.1423498e-08
3.1427147e-08
3.1431115e-08
3.1435405e-08
3.1440023e-08
3.1444958e-08
3.1450204e-08
3.1455764e-08
3.1461633e-08
3.1467806e-08
3.1474277e-08
3.1481043e-08
3.1488098e-08
3.1495441e-08
3.1503064e-08
3.1510966e-08
3.1519138e-08
3.1527578e-08
3.1536273e-08
3.1545219e-08
3.1554416e-08
3.1563889e-08
3.1573675e-08
3.1583978e-08
3.1595208e-08
8.8244107e-10
6.9448173e-09
1.7847925e-08
2.5565159e-08
2.9662724e-08
3.1597308e-08
3.2457719e-08
3.2824271e-08
3.2972399e-08
3.3026013e-08
3.3039503e-08
3.3036061e-08
3.3025155e-08
3.3011761e-08
3.2997612e-08
3.2983446e-08
3.2969574e-08
3.2956122e-08
3.2943136e-08
3.2930632e-08
3.2918609e-08
3.2907063e-08
3.2895986e-08
3.2885374e-08
3.2875219e-08
3.2865516e-08
3.2856262e-08
3.2847452e-08
3.2839082e-08
3.2831152e-08
3.2823658e-08
3.2816598e-08
3.2809971e-08
3.2803775e-08
3.2798006e-08
3.2792662e-08
3.2787733e-08
3.2783207e-08
3.277906e-08
3.2775252e-08
3.2771718e-08
3.2768396e-08
3.2765692e-08
3.27638e-08
3.2762326e-08
3.2761293e-08
3.2760748e-08
3.2760825e-08
3.2761236e-08
3.2761971e-08
3.2763034e-08
3.2764413e-08
3.2766115e-08
3.2768129e-08
3.2770464e-08
3.2773108e-08
3.2776069e-08
3.2779332e-08
3.2782897e-08
3.2786768e-08
3.2790969e-08
3.2795472e-08
3.2800273e-08
3.2805375e-08
3.2810775e-08
3.2816462e-08
3.282243e-08
3.2828671e-08
3.2835179e-08
3.2841948e-08
3.2848971e-08
3.2856238e-08
3.2863739e-08
3.2871466e-08
3.28794e-08
3.2887528e-08
3.2895845e-08
3.2904365e-08
3.2913119e-08
3.2922312e-08
3.2932423e-08
1.0451837e-09
8.6075863e-09
2.0467435e-08
2.8069292e-08
3.1794712e-08
3.3435911e-08
3.4120274e-08
3.4393047e-08
3.4494258e-08
3.452516e-08
3.4528235e-08
3.451896e-08
3.4505571e-08
3.4490829e-08
3.4475862e-08
3.4461124e-08
3.4446795e-08
3.4432943e-08
3.4419588e-08
3.440673e-08
3.4394364e-08
3.4382483e-08
3.4371078e-08
3.4360143e-08
3.4349671e-08
3.4339655e-08
3.4330092e-08
3.4320975e-08
3.4312304e-08
3.4304074e-08
3.4296282e-08
3.4288925e-08
3.4282003e-08
3.4275512e-08
3.4269449e-08
3.426381e-08
3.4258588e-08
3.4253769e-08
3.4249331e-08
3.4245234e-08
3.4241414e-08
3.4237804e-08
3.4234804e-08
3.4232586e-08
3.4230782e-08
3.4229408e-08
3.4228442e-08
3.422798e-08
3.4228081e-08
3.4228497e-08
3.4229233e-08
3.4230275e-08
3.4231632e-08
3.423329e-08
3.4235262e-08
3.4237533e-08
3.4240115e-08
3.4242993e-08
3.4246179e-08
3.4249657e-08
3.4253435e-08
3.4257495e-08
3.4261836e-08
3.4266465e-08
3.4271382e-08
3.4276567e-08
3.4282015e-08
3.4287714e-08
3.4293658e-08
3.4299836e-08
3.4306238e-08
3.4312852e-08
3.4319664e-08
3.4326658e-08
3.4333815e-08
3.4341106e-08
3.4348526e-08
3.4356076e-08
3.4363781e-08
3.4371849e-08
3.4380847e-08
1.2744895e-09
1.0658294e-08
2.3368251e-08
3.0697997e-08
3.3996725e-08
3.5346094e-08
3.5870503e-08
3.6063973e-08
3.6127865e-08
3.6142051e-08
3.6136706e-08
3.6123906e-08
3.6108805e-08
3.609315e-08
3.6077621e-08
3.6062479e-08
3.6047818e-08
3.6033667e-08
3.6020029e-08
3.6006898e-08
3.5994265e-08
3.5982122e-08
3.5970459e-08
3.5959267e-08
3.5948541e-08
3.5938273e-08
3.5928459e-08
3.5919093e-08
3.5910173e-08
3.5901693e-08
3.5893652e-08
3.5886045e-08
3.5878871e-08
3.5872126e-08
3.5865808e-08
3.5859911e-08
3.585443e-08
3.5849351e-08
3.5844654e-08
3.5840298e-08
3.583622e-08
3.5832355e-08
3.582908e-08
3.5826554e-08
3.5824436e-08
3.5822743e-08
3.5821444e-08
3.5820548e-08
3.5820142e-08
3.5820252e-08
3.5820669e-08
3.582138e-08
3.5822397e-08
3.5823702e-08
3.5825311e-08
3.5827206e-08
3.5829403e-08
3.5831884e-08
3.5834662e-08
3.583772e-08
3.5841068e-08
3.5844687e-08
3.5848586e-08
3.5852743e-08
3.5857167e-08
3.5861833e-08
3.5866748e-08
3.5871886e-08
3.5877252e-08
3.5882819e-08
3.5888587e-08
3.5894527e-08
3.5900634e-08
3.5906877e-08
3.5913243e-08
3.5919696e-08
3.5926216e-08
3.5932781e-08
3.5939413e-08
3.5946314e-08
3.595419e-08
1.6065424e-09
1.3175053e-08
2.6553494e-08
3.3442993e-08
3.6273567e-08
3.7342316e-08
3.7726341e-08
3.7855208e-08
3.7890554e-08
3.7892825e-08
3.7881604e-08
3.7866528e-08
3.7850372e-08
3.7834174e-08
3.7818319e-08
3.7802942e-08
3.7788086e-08
3.7773756e-08
3.7759946e-08
3.7746647e-08
3.7733847e-08
3.7721536e-08
3.7709705e-08
3.7698346e-08
3.768745e-08
3.7677011e-08
3.7667024e-08
3.7657483e-08
3.7648385e-08
3.7639724e-08
3.7631498e-08
3.7623703e-08
3.7616336e-08
3.7609394e-08
3.7602873e-08
3.759677e-08
3.7591076e-08
3.7585782e-08
3.7580867e-08
3.7576295e-08
3.7572e-08
3.7567921e-08
3.7564402e-08
3.7561596e-08
3.7559189e-08
3.7557201e-08
3.7555596e-08
3.7554375e-08
3.7553532e-08
3.7553171e-08
3.755328e-08
3.7553676e-08
3.7554359e-08
3.7555321e-08
3.755657e-08
3.7558094e-08
3.7559905e-08
3.7561987e-08
3.7564353e-08
3.7566986e-08
3.7569895e-08
3.757306e-08
3.757649e-08
3.7580162e-08
3.7584082e-08
3.7588227e-08
3.7592598e-08
3.7597172e-08
3.7601947e-08
3.7606897e-08
3.7612015e-08
3.7617276e-08
3.7622664e-08
3.7628149e-08
3.7633707e-08
3.7639305e-08
3.7644904e-08
3.7650482e-08
3.7656032e-08
3.7661754e-08
3.7668452e-08
2.1026242e-09
1.6244261e-08
3.0017998e-08
3.629626e-08
3.8634484e-08
3.944336e-08
3.9709016e-08
3.9787544e-08
3.9802776e-08
3.9795693e-08
3.9781342e-08
3.9764982e-08
3.9748303e-08
3.9731888e-08
3.9715938e-08
3.9700513e-08
3.9685624e-08
3.9671266e-08
3.9657426e-08
3.9644094e-08
3.9631256e-08
3.9618904e-08
3.9607025e-08
3.9595613e-08
3.9584658e-08
3.9574156e-08
3.9564098e-08
3.9554481e-08
3.9545298e-08
3.9536548e-08
3.9528223e-08
3.9520323e-08
3.9512841e-08
3.9505778e-08
3.9499124e-08
3.9492882e-08
3.9487039e-08
3.9481592e-08
3.9476515e-08
3.9471783e-08
3.9467324e-08
3.946309e-08
3.9459367e-08
3.9456323e-08
3.9453661e-08
3.9451412e-08
3.9449532e-08
3.9448027e-08
3.944687e-08
3.9446088e-08
3.9445741e-08
3.9445843e-08
3.9446209e-08
3.944684e-08
3.9447741e-08
3.9448901e-08
3.9450332e-08
3.9452018e-08
3.9453974e-08
3.9456179e-08
3.9458647e-08
3.9461352e-08
3.9464308e-08
3.9467486e-08
3.9470895e-08
3.9474506e-08
3.9478325e-08
3.9482319e-08
3.9486494e-08
3.9490812e-08
3.9495272e-08
3.9499838e-08
3.9504499e-08
3.9509214e-08
3.9513961e-08
3.9518694e-08
3.9523376e-08
3.9527967e-08
3.9532446e-08
3.9536986e-08
3.9542466e-08
2.8674621e-09
1.995654e-08
3.3746404e-08
3.925175e-08
4.1094455e-08
4.1672889e-08
4.1843378e-08
4.1884683e-08
4.1886192e-08
4.1873474e-08
4.1857328e-08
4.1840435e-08
4.1823682e-08
4.1807368e-08
4.1791572e-08
4.177632e-08
4.1761599e-08
4.1747405e-08
4.1733717e-08
4.1720529e-08
4.1707821e-08
4.169559e-08
4.1683819e-08
4.1672507e-08
4.1661638e-08
4.1651213e-08
4.1641218e-08
4.1631656e-08
4.1622512e-08
4.1613792e-08
4.1605481e-08
4.1597586e-08
4.1590092e-08
4.1583007e-08
4.1576316e-08
4.1570025e-08
4.1564118e-08
4.1558597e-08
4.1553436e-08
4.1548616e-08
4.1544068e-08
4.1539752e-08
4.1535886e-08
4.1532659e-08
4.1529792e-08
4.152733e-08
4.1525218e-08
4.1523469e-08
4.1522046e-08
4.1520976e-08
4.152023e-08
4.1519902e-08
4.1519976e-08
4.1520298e-08
4.1520873e-08
4.152168e-08
4.1522747e-08
4.1524042e-08
4.1525597e-08
4.1527375e-08
4.1529406e-08
4.1531648e-08
4.1534131e-08
4.1536806e-08
4.1539703e-08
4.154277e-08
4.1546033e-08
4.1549437e-08
4.1553006e-08
4.155668e-08
4.1560478e-08
4.156434e-08
4.1568271e-08
4.157221e-08
4.1576148e-08
4.158002e-08
4.1583796e-08
4.1587415e-08
4.1590847e-08
4.1594225e-08
4.1598463e-08
4.0803554e-09
2.4398423e-08
3.7711701e-08
4.2307756e-08
4.3675549e-08
4.4059952e-08
4.4158316e-08
4.4174721e-08
4.4166301e-08
4.4151188e-08
4.4134496e-08
4.4117732e-08
4.4101347e-08
4.4085469e-08
4.4070127e-08
4.4055316e-08
4.4041025e-08
4.4027237e-08
4.4013941e-08
4.4001121e-08
4.3988767e-08
4.3976866e-08
4.3965412e-08
4.3954393e-08
4.3943804e-08
4.3933635e-08
4.3923883e-08
4.3914539e-08
4.3905602e-08
4.3897063e-08
4.3888922e-08
4.3881169e-08
4.3873807e-08
4.3866826e-08
4.3860227e-08
4.3854002e-08
4.384815e-08
4.3842657e-08
4.3837519e-08
4.3832702e-08
4.3828166e-08
4.3823859e-08
4.3819938e-08
4.3816599e-08
4.3813601e-08
4.3810988e-08
4.3808709e-08
4.3806768e-08
4.3805137e-08
4.3803833e-08
4.3802825e-08
4.3802141e-08
4.3801798e-08
4.3801841e-08
4.3802124e-08
4.3802598e-08
4.3803327e-08
4.3804242e-08
4.3805418e-08
4.3806773e-08
4.3808382e-08
4.381016e-08
4.3812179e-08
4.3814348e-08
4.3816738e-08
4.3819255e-08
4.3821963e-08
4.382477e-08
4.3827734e-08
4.3830759e-08
4.3833895e-08
4.3837051e-08
4.3840257e-08
4.3843424e-08
4.3846566e-08
4.3849592e-08
4.3852487e-08
4.3855168e-08
4.3857599e-08
4.3859862e-08
4.3862859e-08
6.0474618e-09
2.9637283e-08
4.1874985e-08
4.5470182e-08
4.6408341e-08
4.6639575e-08
4.6687187e-08
4.6687943e-08
4.6674678e-08
4.6658712e-08
4.6642374e-08
4.6626335e-08
4.6610772e-08
4.659573e-08
4.6581203e-08
4.6567182e-08
4.6553647e-08
4.6540588e-08
4.6527987e-08
4.6515834e-08
4.6504117e-08
4.6492827e-08
4.6481952e-08
4.6471487e-08
4.6461421e-08
4.6451751e-08
4.6442469e-08
4.643357e-08
4.6425048e-08
4.6416899e-08
4.6409119e-08
4.6401703e-08
4.6394647e-08
4.6387949e-08
4.6381602e-08
4.6375605e-08
4.6369951e-08
4.6364636e-08
4.6359648e-08
4.635497e-08
4.6350562e-08
4.6346396e-08
4.6342531e-08
4.6339185e-08
4.6336148e-08
4.6333477e-08
4.6331109e-08
4.6329059e-08
4.6327286e-08
4.632582e-08
4.6324618e-08
4.6323711e-08
4.632306e-08
4.632272e-08
4.6322735e-08
4.632293e-08
4.6323338e-08
4.6323915e-08
4.6324722e-08
4.6325687e-08
4.6326879e-08
4.6328218e-08
4.6329774e-08
4.6331457e-08
4.6333336e-08
4.6335318e-08
4.6337469e-08
4.6339692e-08
4.6342047e-08
4.6344438e-08
4.6346913e-08
4.6349379e-08
4.6351868e-08
4.635429e-08
4.6356655e-08
4.6358874e-08
4.6360929e-08
4.6362733e-08
4.6364236e-08
4.6365471e-08
4.6367267e-08
9.2912843e-09
3.5695824e-08
4.6187393e-08
4.8756482e-08
4.9333203e-08
4.9453353e-08
4.9469595e-08
4.9460784e-08
4.9446475e-08
4.9431209e-08
4.9416093e-08
4.9401405e-08
4.9387199e-08
4.937348e-08
4.9360232e-08
4.9347444e-08
4.9335095e-08
4.9323176e-08
4.9311671e-08
4.9300571e-08
4.9289864e-08
4.9279542e-08
4.9269596e-08
4.9260018e-08
4.9250802e-08
4.9241941e-08
4.9233431e-08
4.9225264e-08
4.9217438e-08
4.9209946e-08
4.9202787e-08
4.9195952e-08
4.9189444e-08
4.9183252e-08
4.9177379e-08
4.9171814e-08
4.9166562e-08
4.9161608e-08
4.9156955e-08
4.9152578e-08
4.9148463e-08
4.9144588e-08
4.9140951e-08
4.9137728e-08
4.9134786e-08
4.9132173e-08
4.9129836e-08
4.912778e-08
4.912597e-08
4.9124429e-08
4.9123125e-08
4.9122078e-08
4.9121255e-08
4.9120679e-08
4.9120329e-08
4.9120296e-08
4.9120434e-08
4.9120711e-08
4.9121195e-08
4.9121796e-08
4.9122609e-08
4.9123528e-08
4.912465e-08
4.9125861e-08
4.9127254e-08
4.9128714e-08
4.9130326e-08
4.9131978e-08
4.9133744e-08
4.9135516e-08
4.9137353e-08
4.9139153e-08
4.9140959e-08
4.9142669e-08
4.9144309e-08
4.9145777e-08
4.9147066e-08
4.9148085e-08
4.9148775e-08
4.9149118e-08
4.9149816e-08
1.4709884e-08
4.2511758e-08
5.0596445e-08
5.2200559e-08
5.2501566e-08
5.2550119e-08
5.2549581e-08
5.2537786e-08
5.2524393e-08
5.251099e-08
5.2497941e-08
5.2485319e-08
5.2473127e-08
5.2461354e-08
5.2449984e-08
5.2439005e-08
5.2428399e-08
5.2418159e-08
5.240827e-08
5.2398728e-08
5.2389516e-08
5.2380636e-08
5.237207e-08
5.2363822e-08
5.2355876e-08
5.2348237e-08
5.2340888e-08
5.2333838e-08
5.232707e-08
5.2320592e-08
5.2314387e-08
5.2308466e-08
5.230281e-08
5.2297432e-08
5.2292312e-08
5.2287463e-08
5.2282866e-08
5.2278533e-08
5.2274442e-08
5.2270601e-08
5.2266974e-08
5.2263586e-08
5.2260405e-08
5.2257497e-08
5.2254815e-08
5.2252433e-08
5.2250272e-08
5.2248362e-08
5.2246641e-08
5.2245162e-08
5.2243862e-08
5.2242795e-08
5.2241896e-08
5.2241218e-08
5.2240697e-08
5.2240397e-08
5.2240287e-08
5.224035e-08
5.2240554e-08
5.2240857e-08
5.2241325e-08
5.2241876e-08
5.2242595e-08
5.2243377e-08
5.2244311e-08
5.2245285e-08
5.2246386e-08
5.2247502e-08
5.224871e-08
5.2249901e-08
5.2251141e-08
5.2252322e-08
5.2253499e-08
5.2254566e-08
5.2255556e-08
5.2256369e-08
5.2257002e-08
5.2257377e-08
5.2257422e-08
5.225708e-08
5.2256868e-08
2.3771227e-08
4.9876497e-08
5.5058981e-08
5.5857849e-08
5.5976828e-08
5.5987819e-08
5.5980491e-08
5.5970173e-08
5.5959587e-08
5.5949247e-08
5.593924e-08
5.5929578e-08
5.5920245e-08
5.5911233e-08
5.5902524e-08
5.5894114e-08
5.5885984e-08
5.5878135e-08
5.5870548e-08
5.5863228e-08
5.5856155e-08
5.5849336e-08
5.5842753e-08
5.5836413e-08
5.5830299e-08
5.5824419e-08
5.5818758e-08
5.5813324e-08
5.5808102e-08
5.58031e-08
5.5798304e-08
5.5793721e-08
5.5789341e-08
5.5785167e-08
5.578119e-08
5.5777414e-08
5.5773832e-08
5.5770443e-08
5.5767243e-08
5.5764226e-08
5.5761383e-08
5.5758721e-08
5.5756253e-08
5.5753949e-08
5.5751775e-08
5.5749835e-08
5.5748071e-08
5.5746497e-08
5.5745061e-08
5.5743808e-08
5.5742684e-08
5.5741738e-08
5.5740912e-08
5.5740254e-08
5.5739707e-08
5.5739321e-08
5.5739037e-08
5.573892e-08
5.573892e-08
5.5738998e-08
5.5739192e-08
5.5739432e-08
5.5739811e-08
5.5740212e-08
5.574074e-08
5.5741275e-08
5.5741912e-08
5.574254e-08
5.5743237e-08
5.5743905e-08
5.5744602e-08
5.574524e-08
5.5745859e-08
5.5746381e-08
5.5746824e-08
5.574712e-08
5.5747245e-08
5.5747172e-08
5.574677e-08
5.5746067e-08
5.5745267e-08
3.8691552e-08
5.734964e-08
5.9562463e-08
5.9809471e-08
5.9834918e-08
5.9832904e-08
5.9826906e-08
5.9820599e-08
5.9814412e-08
5.9808442e-08
5.9802664e-08
5.97971e-08
5.979171e-08
5.9786518e-08
5.9781485e-08
5.9776637e-08
5.9771934e-08
5.9767405e-08
5.9763012e-08
5.9758786e-08
5.9754687e-08
5.9750748e-08
5.9746927e-08
5.9743261e-08
5.9739707e-08
5.9736305e-08
5.9733009e-08
5.9729861e-08
5.9726815e-08
5.9723913e-08
5.9721109e-08
5.9718447e-08
5.9715878e-08
5.9713448e-08
5.9711108e-08
5.9708905e-08
5.9706788e-08
5.9704805e-08
5.9702904e-08
5.9701133e-08
5.9699437e-08
5.9697871e-08
5.969639e-08
5.9695031e-08
5.9693739e-08
5.9692558e-08
5.9691471e-08
5.9690508e-08
5.9689604e-08
5.9688821e-08
5.9688094e-08
5.9687483e-08
5.9686922e-08
5.9686472e-08
5.9686069e-08
5.968577e-08
5.9685512e-08
5.9685352e-08
5.9685235e-08
5.9685206e-08
5.9685219e-08
5.9685254e-08
5.9685395e-08
5.9685501e-08
5.9685722e-08
5.9685895e-08
5.9686172e-08
5.9686389e-08
5.9686691e-08
5.9686919e-08
5.9687207e-08
5.9687406e-08
5.9687632e-08
5.9687752e-08
5.9687852e-08
5.9687836e-08
5.9687712e-08
5.9687448e-08
5.9686998e-08
5.9686346e-08
5.9685537e-08
1.4669121e-08
1.4674944e-08
1.4674153e-08
1.4668674e-08
1.4661268e-08
1.4653015e-08
1.4644537e-08
1.4635978e-08
1.4627442e-08
1.4618983e-08
1.4610617e-08
1.4602366e-08
1.4594231e-08
1.4586227e-08
1.4578353e-08
1.4570623e-08
1.4563038e-08
1.4555613e-08
1.4548351e-08
1.4541266e-08
1.4534366e-08
1.4527664e-08
1.4521171e-08
1.4514902e-08
1.4508867e-08
1.4503083e-08
1.4497562e-08
1.4492321e-08
1.4487373e-08
1.4482734e-08
1.4478419e-08
1.4474444e-08
1.4470823e-08
1.4467573e-08
1.4464709e-08
1.4462241e-08
1.4460211e-08
1.4458655e-08
1.4457599e-08
1.4457061e-08
1.4457034e-08
1.4457502e-08
1.445844e-08
1.4459829e-08
1.4461646e-08
1.446388e-08
1.4466512e-08
1.4469526e-08
1.4472898e-08
1.4476597e-08
1.4480571e-08
1.4484742e-08
1.448898e-08
1.4493078e-08
1.449669e-08
1.4499268e-08
1.4499933e-08
1.4497323e-08
1.4489362e-08
1.447296e-08
1.4443619e-08
1.4394965e-08
1.431819e-08
1.4201478e-08
1.4029455e-08
1.3782826e-08
1.3438355e-08
1.2969471e-08
1.234782e-08
1.1546209e-08
1.0543392e-08
9.3311642e-09
7.9237311e-09
6.3682426e-09
4.7530638e-09
3.2076996e-09
1.8876258e-09
9.4423576e-10
5.1049732e-10
9.1928306e-10
6.1660445e-09
1.4857889e-08
1.4864028e-08
1.486301e-08
1.485723e-08
1.4849558e-08
1.4841146e-08
1.4832484e-08
1.4823754e-08
1.4815059e-08
1.4806452e-08
1.4797946e-08
1.4789562e-08
1.4781301e-08
1.4773177e-08
1.4765189e-08
1.475735e-08
1.4749661e-08
1.4742137e-08
1.4734781e-08
1.4727608e-08
1.4720623e-08
1.4713842e-08
1.4707274e-08
1.4700934e-08
1.4694833e-08
1.4688987e-08
1.4683408e-08
1.4678112e-08
1.4673114e-08
1.4668428e-08
1.4664069e-08
1.4660053e-08
1.4656394e-08
1.465311e-08
1.4650216e-08
1.4647726e-08
1.4645663e-08
1.4644074e-08
1.4642992e-08
1.4642432e-08
1.4642389e-08
1.4642844e-08
1.4643775e-08
1.4645158e-08
1.4646974e-08
1.4649209e-08
1.4651847e-08
1.4654872e-08
1.4658262e-08
1.4661988e-08
1.4666002e-08
1.4670236e-08
1.4674574e-08
1.467883e-08
1.4682696e-08
1.4685678e-08
1.4686985e-08
1.468538e-08
1.4678964e-08
1.4664887e-08
1.4638969e-08
1.4595231e-08
1.4525327e-08
1.4417938e-08
1.425816e-08
1.4027033e-08
1.3701369e-08
1.3254146e-08
1.2655825e-08
1.1877029e-08
1.0893137e-08
9.6913338e-09
8.2803593e-09
6.7020845e-09
5.0417878e-09
3.4307032e-09
2.0327025e-09
1.0124084e-09
5.1013845e-10
8.1687666e-10
5.3925409e-09
1.5058704e-08
1.5065118e-08
1.5063821e-08
1.5057691e-08
1.5049804e-08
1.5041178e-08
1.5032315e-08
1.5023406e-08
1.5014546e-08
1.5005784e-08
1.4997133e-08
1.4988612e-08
1.4980221e-08
1.4971973e-08
1.4963867e-08
1.4955917e-08
1.4948122e-08
1.4940497e-08
1.4933046e-08
1.4925783e-08
1.4918713e-08
1.4911852e-08
1.4905209e-08
1.4898797e-08
1.489263e-08
1.4886722e-08
1.4881086e-08
1.4875736e-08
1.4870687e-08
1.4865955e-08
1.4861553e-08
1.4857496e-08
1.4853801e-08
1.4850482e-08
1.4847558e-08
1.4845045e-08
1.4842957e-08
1.4841338e-08
1.484023e-08
1.4839648e-08
1.483959e-08
1.4840034e-08
1.4840958e-08
1.4842336e-08
1.4844152e-08
1.4846388e-08
1.4849032e-08
1.4852067e-08
1.4855474e-08
1.4859225e-08
1.4863279e-08
1.4867571e-08
1.4872003e-08
1.4876405e-08
1.4880508e-08
1.4883867e-08
1.4885777e-08
1.4885118e-08
1.4880165e-08
1.4868305e-08
1.4845675e-08
1.4806692e-08
1.4743491e-08
1.4645277e-08
1.4497669e-08
1.4282115e-08
1.397557e-08
1.3550678e-08
1.2976822e-08
1.2222515e-08
1.1259746e-08
1.0070927e-08
8.658918e-09
7.0596206e-09
5.3543088e-09
3.6751494e-09
2.1943676e-09
1.0912377e-09
5.168687e-10
7.2897439e-10
4.725094e-09
1.5272585e-08
1.5279218e-08
1.5277579e-08
1.5271098e-08
1.526296e-08
1.52541e-08
1.5245027e-08
1.5235929e-08
1.5226897e-08
1.5217975e-08
1.5209175e-08
1.5200512e-08
1.5191987e-08
1.5183611e-08
1.5175385e-08
1.5167319e-08
1.5159417e-08
1.5151689e-08
1.5144141e-08
1.5136785e-08
1.5129629e-08
1.5122687e-08
1.5115967e-08
1.5109485e-08
1.5103251e-08
1.509728e-08
1.5091586e-08
1.5086182e-08
1.5081084e-08
1.5076305e-08
1.5071861e-08
1.5067765e-08
1.5064034e-08
1.5060682e-08
1.5057728e-08
1.5055189e-08
1.5053083e-08
1.5051434e-08
1.50503e-08
1.5049699e-08
1.5049626e-08
1.5050061e-08
1.5050977e-08
1.5052352e-08
1.5054166e-08
1.5056405e-08
1.5059054e-08
1.50621e-08
1.5065523e-08
1.5069298e-08
1.5073389e-08
1.5077738e-08
1.5082256e-08
1.5086795e-08
1.5091117e-08
1.509483e-08
1.5097301e-08
1.5097529e-08
1.5093954e-08
1.5084196e-08
1.5064704e-08
1.5030297e-08
1.4973598e-08
1.4884369e-08
1.4748797e-08
1.4548813e-08
1.4261617e-08
1.3859642e-08
1.331132e-08
1.2583158e-08
1.1643769e-08
1.0470654e-08
9.0604047e-09
7.4422307e-09
5.6923948e-09
3.94302e-09
2.3744375e-09
1.181914e-09
5.3083367e-10
6.5338956e-10
4.1417812e-09
1.5500652e-08
1.5507439e-08
1.5505382e-08
1.5498564e-08
1.549013e-08
1.5481018e-08
1.5471724e-08
1.5462431e-08
1.5453221e-08
1.5444132e-08
1.5435177e-08
1.5426367e-08
1.5417704e-08
1.5409196e-08
1.5400846e-08
1.5392662e-08
1.5384649e-08
1.5376815e-08
1.5369169e-08
1.5361719e-08
1.5354476e-08
1.5347452e-08
1.5340656e-08
1.5334101e-08
1.53278e-08
1.5321767e-08
1.5316015e-08
1.5310558e-08
1.530541e-08
1.5300586e-08
1.5296099e-08
1.5291966e-08
1.5288199e-08
1.5284816e-08
1.5281832e-08
1.5279267e-08
1.5277141e-08
1.5275471e-08
1.5274311e-08
1.527369e-08
1.5273603e-08
1.5274028e-08
1.5274938e-08
1.527631e-08
1.5278123e-08
1.5280364e-08
1.5283019e-08
1.5286075e-08
1.5289514e-08
1.5293313e-08
1.5297438e-08
1.530184e-08
1.5306438e-08
1.5311106e-08
1.5315631e-08
1.531967e-08
1.5322663e-08
1.5323718e-08
1.5321435e-08
1.5313661e-08
1.5297153e-08
1.526713e-08
1.5216716e-08
1.5136251e-08
1.5012538e-08
1.4828067e-08
1.4560392e-08
1.4181865e-08
1.3660116e-08
1.2959769e-08