/*--------------------------------*- C++ -*----------------------------------*\
| =========                 |                                                 |
| \\      /  F ield         | OpenFOAM: The Open Source CFD Toolbox           |
|  \\    /   O peration     | Version:  v2006                                 |
|   \\  /    A nd           | Website:  www.openfoam.com                      |
|    \\/     M anipulation  |                                                 |
\*---------------------------------------------------------------------------*/
FoamFile
{
    version     2.0;
    format      ascii;
    class       volScalarField;
    location    "10000";
    object      nut;
}
// * * * * * * * * * * * * * * * * * * * * * * * * * * * * * * * * * * * * * //

dimensions      [0 2 -1 0 0 0 0];


internalField   nonuniform List<scalar> 
102907
(
3.4877632e-11
3.4889841e-10
3.6661661e-09
1.382464e-08
3.0515211e-08
4.9142449e-08
6.5105382e-08
7.6555413e-08
8.3879132e-08
8.8239046e-08
9.0719633e-08
9.2089233e-08
9.282902e-08
9.3221325e-08
9.342536e-08
9.3528652e-08
9.3578839e-08
9.3601417e-08
9.3609867e-08
9.361121e-08
9.3609097e-08
9.3605374e-08
9.3601001e-08
9.3596439e-08
9.359194e-08
9.3587608e-08
9.3583514e-08
9.3579673e-08
9.3576111e-08
9.3572822e-08
9.3569826e-08
9.3567109e-08
9.3564688e-08
9.3562551e-08
9.3560712e-08
9.3559149e-08
9.3557877e-08
9.3556867e-08
9.3556122e-08
9.3555605e-08
9.3555353e-08
9.3555497e-08
9.3556129e-08
9.3557134e-08
9.355847e-08
9.3560088e-08
9.3562003e-08
9.3564189e-08
9.3566661e-08
9.3569402e-08
9.3572425e-08
9.3575715e-08
9.3579287e-08
9.358313e-08
9.3587258e-08
9.3591659e-08
9.359635e-08
9.3601319e-08
9.3606578e-08
9.3612121e-08
9.3617959e-08
9.3624088e-08
9.363052e-08
9.3637255e-08
9.3644304e-08
9.3651672e-08
9.365937e-08
9.3667409e-08
9.36758e-08
9.3684561e-08
9.3693705e-08
9.3703257e-08
9.3713232e-08
9.3723667e-08
9.3734581e-08
9.374603e-08
9.3758041e-08
9.3770701e-08
9.3784063e-08
9.3798281e-08
9.381344e-08
3.6361393e-11
4.4922754e-10
4.5542215e-09
1.6391708e-08
3.4692124e-08
5.3874543e-08
6.9350315e-08
7.9870411e-08
8.6298675e-08
8.9980474e-08
9.2006684e-08
9.3092787e-08
9.3663564e-08
9.3958276e-08
9.4107226e-08
9.4179868e-08
9.4213263e-08
9.4226755e-08
9.4230304e-08
9.4228998e-08
9.4225412e-08
9.4220841e-08
9.4215929e-08
9.4210998e-08
9.4206204e-08
9.4201625e-08
9.4197295e-08
9.4193238e-08
9.4189453e-08
9.4185957e-08
9.4182738e-08
9.4179814e-08
9.4177167e-08
9.4174818e-08
9.4172746e-08
9.4170969e-08
9.4169463e-08
9.4168234e-08
9.4167246e-08
9.4166488e-08
9.4165921e-08
9.4165805e-08
9.4166193e-08
9.416697e-08
9.4168042e-08
9.4169403e-08
9.4171037e-08
9.4172952e-08
9.4175128e-08
9.4177584e-08
9.4180297e-08
9.4183286e-08
9.4186532e-08
9.4190058e-08
9.4193843e-08
9.419791e-08
9.4202242e-08
9.4206858e-08
9.421174e-08
9.4216909e-08
9.4222348e-08
9.4228079e-08
9.4234086e-08
9.4240395e-08
9.4246988e-08
9.4253896e-08
9.4261101e-08
9.426864e-08
9.4276495e-08
9.4284706e-08
9.4293258e-08
9.4302199e-08
9.4311515e-08
9.4321263e-08
9.4331432e-08
9.4342094e-08
9.4353249e-08
9.4364997e-08
9.4377361e-08
9.4390517e-08
9.4404518e-08
3.8397224e-11
5.8036462e-10
5.6356886e-09
1.9329281e-08
3.9188978e-08
5.8681246e-08
7.3455528e-08
8.2964195e-08
8.8512342e-08
9.1568468e-08
9.3194409e-08
9.4039778e-08
9.447138e-08
9.4687916e-08
9.4793809e-08
9.4842912e-08
9.4863684e-08
9.4870465e-08
9.4870436e-08
9.4867203e-08
9.4862537e-08
9.4857332e-08
9.4852004e-08
9.4846773e-08
9.484173e-08
9.4836931e-08
9.483239e-08
9.4828131e-08
9.4824144e-08
9.4820446e-08
9.4817026e-08
9.4813898e-08
9.4811047e-08
9.4808491e-08
9.4806211e-08
9.480422e-08
9.4802496e-08
9.4801044e-08
9.4799829e-08
9.4798843e-08
9.4798044e-08
9.4797482e-08
9.4797763e-08
9.4798304e-08
9.4799124e-08
9.4800219e-08
9.4801588e-08
9.4803228e-08
9.4805126e-08
9.480729e-08
9.4809707e-08
9.481239e-08
9.4815329e-08
9.4818536e-08
9.4821998e-08
9.4825728e-08
9.4829715e-08
9.4833972e-08
9.4838487e-08
9.4843276e-08
9.4848325e-08
9.4853653e-08
9.4859245e-08
9.4865123e-08
9.4871272e-08
9.4877718e-08
9.4884443e-08
9.489148e-08
9.4898809e-08
9.4906471e-08
9.4914444e-08
9.4922777e-08
9.4931446e-08
9.4940511e-08
9.4949948e-08
9.4959834e-08
9.4970146e-08
9.4980999e-08
9.4992381e-08
9.5004497e-08
9.5017371e-08
4.129489e-11
7.5174605e-10
6.9467298e-09
2.2666447e-08
4.3980728e-08
6.3504972e-08
7.7378978e-08
8.5824624e-08
9.0527838e-08
9.3018159e-08
9.4298045e-08
9.4942739e-08
9.5261839e-08
9.5416952e-08
9.5489858e-08
9.5521156e-08
9.5532639e-08
9.5534574e-08
9.553199e-08
9.5527384e-08
9.5521937e-08
9.5516257e-08
9.55106e-08
9.5505123e-08
9.5499863e-08
9.5494872e-08
9.5490141e-08
9.5485698e-08
9.5481525e-08
9.5477643e-08
9.5474034e-08
9.5470717e-08
9.5467674e-08
9.5464925e-08
9.5462447e-08
9.5460259e-08
9.5458328e-08
9.5456672e-08
9.545524e-08
9.5454036e-08
9.5452986e-08
9.545208e-08
9.5452126e-08
9.5452472e-08
9.5453076e-08
9.5453914e-08
9.5455029e-08
9.5456403e-08
9.5458027e-08
9.5459911e-08
9.5462038e-08
9.5464429e-08
9.5467062e-08
9.5469958e-08
9.5473093e-08
9.5476493e-08
9.5480132e-08
9.548404e-08
9.5488188e-08
9.5492607e-08
9.5497267e-08
9.5502202e-08
9.5507378e-08
9.5512836e-08
9.551854e-08
9.5524532e-08
9.5530777e-08
9.5537322e-08
9.5544128e-08
9.555125e-08
9.5558647e-08
9.5566382e-08
9.5574409e-08
9.5582805e-08
9.5591518e-08
9.5600642e-08
9.5610124e-08
9.5620099e-08
9.5630517e-08
9.5641618e-08
9.5653387e-08
4.5230388e-11
9.756252e-10
8.5289454e-09
2.6429054e-08
4.9031581e-08
6.8285339e-08
8.1084875e-08
8.8447056e-08
9.2357625e-08
9.4346651e-08
9.5333154e-08
9.581378e-08
9.6043694e-08
9.6152041e-08
9.6199262e-08
9.6217718e-08
9.6222574e-08
9.6221093e-08
9.6216726e-08
9.6211156e-08
9.6205154e-08
9.619912e-08
9.6193209e-08
9.6187524e-08
9.6182082e-08
9.6176919e-08
9.6172022e-08
9.6167411e-08
9.6163072e-08
9.6159019e-08
9.615524e-08
9.6151748e-08
9.6148529e-08
9.6145598e-08
9.6142938e-08
9.6140562e-08
9.6138443e-08
9.6136591e-08
9.6134961e-08
9.6133552e-08
9.6132292e-08
9.6131168e-08
9.6130763e-08
9.6130931e-08
9.6131326e-08
9.6131976e-08
9.6132865e-08
9.6133967e-08
9.6135334e-08
9.6136939e-08
9.6138788e-08
9.6140886e-08
9.6143218e-08
9.6145805e-08
9.614862e-08
9.6151694e-08
9.6154994e-08
9.6158556e-08
9.6162344e-08
9.6166397e-08
9.6170674e-08
9.6175219e-08
9.6179987e-08
9.6185028e-08
9.6190292e-08
9.6195837e-08
9.6201606e-08
9.6207665e-08
9.6213952e-08
9.6220543e-08
9.6227369e-08
9.6234517e-08
9.624191e-08
9.6249649e-08
9.6257647e-08
9.6266026e-08
9.627469e-08
9.6283807e-08
9.6293279e-08
9.6303388e-08
9.631408e-08
5.0517961e-11
1.267951e-09
1.0429608e-08
3.0637179e-08
5.4293523e-08
7.2960581e-08
8.4544518e-08
9.0833757e-08
9.4017836e-08
9.5572112e-08
9.6315014e-08
9.6664313e-08
9.682486e-08
9.6898217e-08
9.6926551e-08
9.6935689e-08
9.6935879e-08
9.6932037e-08
9.6926446e-08
9.6920217e-08
9.6913825e-08
9.6907537e-08
9.6901429e-08
9.6895581e-08
9.6889982e-08
9.6884675e-08
9.6879628e-08
9.6874876e-08
9.6870384e-08
9.6866186e-08
9.6862248e-08
9.6858604e-08
9.6855218e-08
9.6852128e-08
9.6849294e-08
9.6846751e-08
9.6844451e-08
9.6842425e-08
9.6840606e-08
9.6839014e-08
9.6837554e-08
9.6836235e-08
9.6835492e-08
9.6835402e-08
9.6835553e-08
9.6835989e-08
9.6836663e-08
9.6837559e-08
9.6838683e-08
9.6840016e-08
9.6841591e-08
9.6843406e-08
9.684544e-08
9.6847732e-08
9.6850229e-08
9.6852989e-08
9.6855951e-08
9.6859181e-08
9.686261e-08
9.6866307e-08
9.6870201e-08
9.6874367e-08
9.6878727e-08
9.688336e-08
9.6888187e-08
9.6893292e-08
9.689859e-08
9.6904171e-08
9.6909946e-08
9.6916013e-08
9.6922277e-08
9.6928845e-08
9.6935615e-08
9.6942706e-08
9.6950005e-08
9.6957649e-08
9.6965515e-08
9.6973788e-08
9.6982339e-08
9.6991474e-08
9.7001123e-08
5.7560853e-11
1.649402e-09
1.2702045e-08
3.5302791e-08
5.9706465e-08
7.7470441e-08
8.7737796e-08
9.2993737e-08
9.5527626e-08
9.6713259e-08
9.7258358e-08
9.7504949e-08
9.7614401e-08
9.7659202e-08
9.7675024e-08
9.7677865e-08
9.7674899e-08
9.7669483e-08
9.7663068e-08
9.7656404e-08
9.764974e-08
9.7643279e-08
9.763702e-08
9.7631053e-08
9.7625324e-08
9.7619905e-08
9.7614727e-08
9.760986e-08
9.7605232e-08
9.7600914e-08
9.7596833e-08
9.7593062e-08
9.7589524e-08
9.7586297e-08
9.7583301e-08
9.7580611e-08
9.757814e-08
9.757596e-08
9.7573964e-08
9.7572209e-08
9.7570563e-08
9.7569073e-08
9.7568122e-08
9.7567707e-08
9.7567546e-08
9.75678e-08
9.7568245e-08
9.7568917e-08
9.7569813e-08
9.7570929e-08
9.7572254e-08
9.757379e-08
9.7575537e-08
9.757754e-08
9.7579725e-08
9.7582183e-08
9.758481e-08
9.7587716e-08
9.759079e-08
9.7594139e-08
9.7597656e-08
9.760145e-08
9.7605407e-08
9.760964e-08
9.7614035e-08
9.7618709e-08
9.762354e-08
9.7628651e-08
9.7633919e-08
9.7639472e-08
9.7645181e-08
9.7651182e-08
9.7657338e-08
9.7663795e-08
9.7670405e-08
9.7677332e-08
9.7684416e-08
9.7691868e-08
9.7699517e-08
9.7707705e-08
9.7716343e-08
6.6945736e-11
2.1467252e-09
1.5405808e-08
4.0426617e-08
6.5198712e-08
8.1758956e-08
9.065396e-08
9.4942004e-08
9.6908276e-08
9.7788735e-08
9.81771e-08
9.8345104e-08
9.8416473e-08
9.8441908e-08
9.8448596e-08
9.844707e-08
9.8442008e-08
9.8435559e-08
9.8428629e-08
9.8421675e-08
9.8414845e-08
9.8408258e-08
9.8401906e-08
9.8395845e-08
9.8390032e-08
9.8384519e-08
9.8379251e-08
9.8374283e-08
9.8369556e-08
9.836513e-08
9.836094e-08
9.8357052e-08
9.8353396e-08
9.835004e-08
9.8346914e-08
9.8344084e-08
9.8341473e-08
9.8339143e-08
9.8336999e-08
9.8335087e-08
9.8333285e-08
9.8331629e-08
9.8330502e-08
9.832987e-08
9.8329317e-08
9.8329399e-08
9.8329612e-08
9.8330059e-08
9.8330726e-08
9.8331606e-08
9.8332699e-08
9.8333999e-08
9.8335503e-08
9.8337203e-08
9.8339102e-08
9.834125e-08
9.8343563e-08
9.834614e-08
9.834888e-08
9.8351877e-08
9.8355035e-08
9.8358454e-08
9.8362025e-08
9.8365855e-08
9.8369834e-08
9.8374074e-08
9.8378455e-08
9.8383097e-08
9.8387875e-08
9.8392916e-08
9.8398086e-08
9.8403524e-08
9.8409083e-08
9.8414915e-08
9.8420856e-08
9.8427079e-08
9.8433405e-08
9.8440052e-08
9.8446829e-08
9.8454092e-08
9.8461758e-08
7.9533056e-11
2.7944412e-09
1.8606697e-08
4.5994646e-08
7.0688636e-08
8.5777575e-08
9.3292103e-08
9.669882e-08
9.818239e-08
9.8816718e-08
9.9084181e-08
9.9195175e-08
9.9236718e-08
9.9249608e-08
9.9250333e-08
9.9246005e-08
9.9239623e-08
9.9232553e-08
9.9225315e-08
9.9218205e-08
9.9211276e-08
9.9204626e-08
9.9198214e-08
9.9192103e-08
9.9186233e-08
9.9180666e-08
9.9175333e-08
9.9170302e-08
9.9165498e-08
9.9160998e-08
9.9156719e-08
9.9152745e-08
9.9148988e-08
9.9145535e-08
9.9142294e-08
9.9139354e-08
9.9136616e-08
9.9134163e-08
9.9131881e-08
9.9129839e-08
9.9127892e-08
9.9126097e-08
9.9124802e-08
9.9123983e-08
9.9123225e-08
9.9122937e-08
9.9122941e-08
9.9123191e-08
9.9123637e-08
9.9124293e-08
9.9125147e-08
9.9126205e-08
9.9127457e-08
9.9128912e-08
9.9130557e-08
9.9132401e-08
9.9134407e-08
9.9136666e-08
9.913908e-08
9.9141732e-08
9.9144539e-08
9.9147591e-08
9.9150783e-08
9.9154218e-08
9.9157789e-08
9.9161605e-08
9.9165544e-08
9.9169726e-08
9.9174023e-08
9.9178561e-08
9.9183205e-08
9.918809e-08
9.9193067e-08
9.9198288e-08
9.9203578e-08
9.9209114e-08
9.9214704e-08
9.9220568e-08
9.9226502e-08
9.9232868e-08
9.92396e-08
9.664148e-11
3.6370275e-09
2.2376393e-08
5.1974024e-08
7.6087386e-08
8.9487984e-08
9.5661057e-08
9.8288564e-08
9.9373081e-08
9.9814476e-08
9.9991782e-08
1.0006038e-07
1.0008254e-07
1.0008672e-07
1.0008354e-07
1.0007746e-07
1.000703e-07
1.0006289e-07
1.000555e-07
1.0004833e-07
1.0004138e-07
1.0003471e-07
1.0002829e-07
1.0002216e-07
1.0001627e-07
1.0001068e-07
1.0000532e-07
1.0000025e-07
9.9995416e-08
9.9990863e-08
9.9986537e-08
9.9982496e-08
9.9978676e-08
9.9975141e-08
9.9971823e-08
9.9968786e-08
9.9965956e-08
9.9963393e-08
9.9961007e-08
9.9958847e-08
9.9956786e-08
9.9954864e-08
9.995343e-08
9.9952431e-08
9.9951507e-08
9.9951002e-08
9.9950647e-08
9.9950724e-08
9.9950968e-08
9.9951411e-08
9.9952042e-08
9.9952863e-08
9.9953872e-08
9.995507e-08
9.9956452e-08
9.9958024e-08
9.9959777e-08
9.9961716e-08
9.9963827e-08
9.9966133e-08
9.9968606e-08
9.9971295e-08
9.9974122e-08
9.9977167e-08
9.9980343e-08
9.998374e-08
9.9987251e-08
9.9990979e-08
9.999481e-08
9.9998855e-08
1.0000299e-07
1.0000733e-07
1.0001174e-07
1.0001637e-07
1.0002103e-07
1.0002589e-07
1.0003077e-07
1.0003588e-07
1.00041e-07
1.000465e-07
1.0005234e-07
1.2036953e-10
4.7318078e-09
2.6791462e-08
5.83087e-08
8.1302875e-08
9.2864541e-08
9.7778648e-08
9.9738478e-08
1.0050312e-07
1.0079797e-07
1.0091084e-07
1.0094851e-07
1.0095822e-07
1.0095694e-07
1.009514e-07
1.0094432e-07
1.0093677e-07
1.0092922e-07
1.0092181e-07
1.0091465e-07
1.0090774e-07
1.0090111e-07
1.0089472e-07
1.0088862e-07
1.0088277e-07
1.0087719e-07
1.0087185e-07
1.0086678e-07
1.0086194e-07
1.0085737e-07
1.0085303e-07
1.0084896e-07
1.008451e-07
1.0084152e-07
1.0083815e-07
1.0083505e-07
1.0083215e-07
1.0082951e-07
1.0082704e-07
1.0082479e-07
1.0082264e-07
1.0082062e-07
1.0081906e-07
1.008179e-07
1.0081683e-07
1.0081615e-07
1.0081556e-07
1.0081536e-07
1.0081541e-07
1.0081566e-07
1.0081608e-07
1.0081668e-07
1.0081746e-07
1.0081841e-07
1.0081954e-07
1.0082084e-07
1.0082232e-07
1.0082397e-07
1.008258e-07
1.0082779e-07
1.0082995e-07
1.0083228e-07
1.0083476e-07
1.0083742e-07
1.0084021e-07
1.008432e-07
1.008463e-07
1.0084958e-07
1.0085296e-07
1.0085652e-07
1.0086016e-07
1.0086397e-07
1.0086784e-07
1.0087188e-07
1.0087594e-07
1.0088015e-07
1.0088436e-07
1.0088873e-07
1.0089307e-07
1.0089774e-07
1.0090274e-07
1.541774e-10
6.1528766e-09
3.1931221e-08
6.4915352e-08
8.6245241e-08
9.5896248e-08
9.9670709e-08
1.0107753e-07
1.0159442e-07
1.017831e-07
1.018484e-07
1.0186698e-07
1.0186869e-07
1.0186411e-07
1.0185725e-07
1.0184969e-07
1.0184201e-07
1.0183448e-07
1.0182714e-07
1.0182008e-07
1.0181327e-07
1.0180673e-07
1.0180044e-07
1.0179442e-07
1.0178864e-07
1.0178312e-07
1.0177783e-07
1.0177281e-07
1.0176801e-07
1.0176347e-07
1.0175915e-07
1.0175509e-07
1.0175123e-07
1.0174764e-07
1.0174425e-07
1.0174112e-07
1.0173818e-07
1.0173549e-07
1.0173297e-07
1.0173066e-07
1.0172844e-07
1.0172635e-07
1.017247e-07
1.0172341e-07
1.0172221e-07
1.0172137e-07
1.0172063e-07
1.0172021e-07
1.0171997e-07
1.0172005e-07
1.0172028e-07
1.0172068e-07
1.0172125e-07
1.0172197e-07
1.0172286e-07
1.0172391e-07
1.0172512e-07
1.0172649e-07
1.0172803e-07
1.0172972e-07
1.0173156e-07
1.0173356e-07
1.0173571e-07
1.0173801e-07
1.0174044e-07
1.0174302e-07
1.0174573e-07
1.0174857e-07
1.0175152e-07
1.0175461e-07
1.0175777e-07
1.0176107e-07
1.0176441e-07
1.0176789e-07
1.0177137e-07
1.0177497e-07
1.0177851e-07
1.017822e-07
1.0178578e-07
1.0178966e-07
1.0179383e-07
2.0392586e-10
7.9966252e-09
3.7873496e-08
7.1680157e-08
9.0833135e-08
9.8587578e-08
1.013694e-07
1.0233509e-07
1.0266728e-07
1.0278163e-07
1.0281493e-07
1.0282148e-07
1.0281843e-07
1.0281205e-07
1.0280457e-07
1.0279689e-07
1.0278927e-07
1.0278189e-07
1.0277472e-07
1.0276783e-07
1.0276118e-07
1.0275481e-07
1.0274866e-07
1.0274278e-07
1.0273712e-07
1.0273173e-07
1.0272655e-07
1.0272162e-07
1.027169e-07
1.0271244e-07
1.0270818e-07
1.0270417e-07
1.0270036e-07
1.026968e-07
1.0269342e-07
1.026903e-07
1.0268736e-07
1.0268465e-07
1.0268211e-07
1.0267977e-07
1.0267752e-07
1.026754e-07
1.0267367e-07
1.0267227e-07
1.0267098e-07
1.0267001e-07
1.0266914e-07
1.0266856e-07
1.0266809e-07
1.0266795e-07
1.02668e-07
1.0266822e-07
1.0266859e-07
1.026691e-07
1.0266977e-07
1.0267058e-07
1.0267155e-07
1.0267266e-07
1.0267392e-07
1.0267532e-07
1.0267686e-07
1.0267854e-07
1.0268036e-07
1.0268232e-07
1.0268439e-07
1.026866e-07
1.0268891e-07
1.0269135e-07
1.0269387e-07
1.0269652e-07
1.0269922e-07
1.0270203e-07
1.0270487e-07
1.0270782e-07
1.0271073e-07
1.0271375e-07
1.0271666e-07
1.027197e-07
1.0272256e-07
1.0272569e-07
1.0272905e-07
2.7976336e-10
1.0389948e-08
4.4686845e-08
7.8458001e-08
9.5000729e-08
1.0095839e-07
1.0291139e-07
1.0353989e-07
1.0374215e-07
1.0380337e-07
1.0381805e-07
1.0381754e-07
1.0381193e-07
1.0380474e-07
1.0379713e-07
1.0378958e-07
1.0378218e-07
1.0377505e-07
1.0376814e-07
1.0376151e-07
1.0375509e-07
1.0374895e-07
1.0374301e-07
1.0373735e-07
1.0373187e-07
1.0372666e-07
1.0372164e-07
1.0371688e-07
1.0371229e-07
1.0370796e-07
1.0370381e-07
1.0369991e-07
1.0369618e-07
1.036927e-07
1.0368938e-07
1.0368631e-07
1.036834e-07
1.0368073e-07
1.036782e-07
1.0367587e-07
1.0367363e-07
1.0367152e-07
1.0366973e-07
1.0366827e-07
1.036669e-07
1.0366584e-07
1.0366486e-07
1.0366417e-07
1.0366355e-07
1.0366321e-07
1.0366302e-07
1.036631e-07
1.0366328e-07
1.0366361e-07
1.0366408e-07
1.0366467e-07
1.0366541e-07
1.0366627e-07
1.0366727e-07
1.036684e-07
1.0366966e-07
1.0367104e-07
1.0367255e-07
1.0367417e-07
1.0367591e-07
1.0367776e-07
1.0367969e-07
1.0368174e-07
1.0368385e-07
1.0368608e-07
1.0368833e-07
1.0369069e-07
1.0369303e-07
1.0369549e-07
1.0369785e-07
1.0370034e-07
1.0370264e-07
1.0370509e-07
1.0370726e-07
1.0370971e-07
1.0371227e-07
3.9952538e-10
1.3503129e-08
5.241669e-08
8.5075733e-08
9.8704466e-08
1.0304259e-07
1.0433576e-07
1.047188e-07
1.0483316e-07
1.0486142e-07
1.0486489e-07
1.0486056e-07
1.0485381e-07
1.0484646e-07
1.0483904e-07
1.0483181e-07
1.0482477e-07
1.04818e-07
1.0481144e-07
1.0480515e-07
1.0479905e-07
1.0479323e-07
1.0478758e-07
1.047822e-07
1.0477698e-07
1.0477202e-07
1.0476723e-07
1.0476269e-07
1.047583e-07
1.0475417e-07
1.0475018e-07
1.0474645e-07
1.0474285e-07
1.0473951e-07
1.047363e-07
1.0473334e-07
1.047305e-07
1.0472792e-07
1.0472543e-07
1.0472317e-07
1.0472096e-07
1.0471891e-07
1.047171e-07
1.0471562e-07
1.0471419e-07
1.0471309e-07
1.0471202e-07
1.0471126e-07
1.0471052e-07
1.0471008e-07
1.0470967e-07
1.0470957e-07
1.0470958e-07
1.0470976e-07
1.0471004e-07
1.0471044e-07
1.0471097e-07
1.047116e-07
1.0471237e-07
1.0471324e-07
1.0471424e-07
1.0471534e-07
1.0471655e-07
1.0471787e-07
1.0471928e-07
1.0472079e-07
1.0472237e-07
1.0472406e-07
1.0472578e-07
1.0472761e-07
1.0472943e-07
1.0473136e-07
1.0473323e-07
1.0473523e-07
1.0473708e-07
1.0473906e-07
1.047408e-07
1.0474271e-07
1.0474425e-07
1.0474607e-07
1.0474789e-07
5.9475915e-10
1.7571327e-08
6.1061709e-08
9.134146e-08
1.0192863e-07
1.0488577e-07
1.0568205e-07
1.0589854e-07
1.0595375e-07
1.0596425e-07
1.0596192e-07
1.0595594e-07
1.0594896e-07
1.0594188e-07
1.059349e-07
1.0592815e-07
1.0592159e-07
1.059153e-07
1.0590919e-07
1.0590334e-07
1.0589766e-07
1.0589224e-07
1.0588697e-07
1.0588196e-07
1.0587709e-07
1.0587247e-07
1.0586798e-07
1.0586374e-07
1.0585963e-07
1.0585576e-07
1.0585201e-07
1.058485e-07
1.0584511e-07
1.0584196e-07
1.0583892e-07
1.0583612e-07
1.0583342e-07
1.0583096e-07
1.0582858e-07
1.0582643e-07
1.0582431e-07
1.0582236e-07
1.0582056e-07
1.0581911e-07
1.0581768e-07
1.0581656e-07
1.0581545e-07
1.0581464e-07
1.0581383e-07
1.0581331e-07
1.0581278e-07
1.0581255e-07
1.0581234e-07
1.0581239e-07
1.0581253e-07
1.0581275e-07
1.058131e-07
1.0581353e-07
1.0581409e-07
1.0581472e-07
1.0581549e-07
1.0581632e-07
1.0581727e-07
1.0581828e-07
1.058194e-07
1.0582059e-07
1.0582184e-07
1.0582318e-07
1.0582454e-07
1.0582599e-07
1.0582742e-07
1.0582894e-07
1.0583039e-07
1.0583194e-07
1.0583334e-07
1.0583485e-07
1.0583609e-07
1.0583749e-07
1.0583849e-07
1.0583973e-07
1.0584088e-07
9.2128747e-10
2.293304e-08
7.0535947e-08
9.7061762e-08
1.0468873e-07
1.0654174e-07
1.0698804e-07
1.07098e-07
1.0711988e-07
1.0712061e-07
1.0711568e-07
1.0710934e-07
1.0710272e-07
1.0709622e-07
1.0708986e-07
1.0708375e-07
1.0707781e-07
1.0707212e-07
1.0706658e-07
1.0706129e-07
1.0705614e-07
1.0705123e-07
1.0704645e-07
1.070419e-07
1.0703747e-07
1.0703328e-07
1.0702919e-07
1.0702534e-07
1.0702158e-07
1.0701806e-07
1.0701463e-07
1.0701143e-07
1.0700832e-07
1.0700544e-07
1.0700263e-07
1.0700006e-07
1.0699756e-07
1.0699529e-07
1.0699307e-07
1.0699108e-07
1.069891e-07
1.0698732e-07
1.0698559e-07
1.0698421e-07
1.0698282e-07
1.0698173e-07
1.0698063e-07
1.0697981e-07
1.0697897e-07
1.069784e-07
1.0697781e-07
1.0697749e-07
1.0697713e-07
1.0697706e-07
1.0697703e-07
1.0697715e-07
1.0697732e-07
1.0697758e-07
1.0697796e-07
1.0697839e-07
1.0697893e-07
1.0697953e-07
1.0698023e-07
1.0698098e-07
1.0698182e-07
1.0698272e-07
1.0698367e-07
1.0698468e-07
1.0698571e-07
1.0698681e-07
1.0698788e-07
1.0698903e-07
1.0699009e-07
1.0699124e-07
1.0699222e-07
1.0699332e-07
1.0699411e-07
1.0699508e-07
1.0699559e-07
1.0699636e-07
1.069969e-07
1.477921e-09
3.0104026e-08
8.0611744e-08
1.0206596e-07
1.0703165e-07
1.0806898e-07
1.0829055e-07
1.0833574e-07
1.0834161e-07
1.0833828e-07
1.0833277e-07
1.0832689e-07
1.0832101e-07
1.0831532e-07
1.0830979e-07
1.0830447e-07
1.082993e-07
1.0829435e-07
1.0828953e-07
1.0828492e-07
1.0828044e-07
1.0827616e-07
1.0827199e-07
1.0826802e-07
1.0826415e-07
1.0826049e-07
1.0825692e-07
1.0825355e-07
1.0825026e-07
1.0824717e-07
1.0824416e-07
1.0824135e-07
1.0823861e-07
1.0823607e-07
1.0823359e-07
1.0823132e-07
1.0822909e-07
1.0822708e-07
1.082251e-07
1.0822333e-07
1.0822157e-07
1.0822001e-07
1.0821841e-07
1.0821717e-07
1.0821586e-07
1.0821486e-07
1.0821382e-07
1.0821304e-07
1.0821221e-07
1.0821165e-07
1.0821103e-07
1.0821068e-07
1.0821025e-07
1.0821011e-07
1.0820987e-07
1.0820996e-07
1.0820997e-07
1.082101e-07
1.0821031e-07
1.0821057e-07
1.0821093e-07
1.0821132e-07
1.082118e-07
1.0821232e-07
1.0821291e-07
1.0821354e-07
1.0821422e-07
1.0821494e-07
1.0821568e-07
1.0821646e-07
1.0821721e-07
1.0821802e-07
1.0821874e-07
1.0821954e-07
1.0822015e-07
1.0822089e-07
1.082213e-07
1.0822192e-07
1.0822203e-07
1.0822242e-07
1.0822245e-07
2.4405379e-09
3.9935322e-08
9.08487e-08
1.0623755e-07
1.090326e-07
1.0952597e-07
1.096175e-07
1.0963092e-07
1.0962964e-07
1.0962528e-07
1.0962034e-07
1.096154e-07
1.0961057e-07
1.0960591e-07
1.0960139e-07
1.0959705e-07
1.0959283e-07
1.0958878e-07
1.0958484e-07
1.0958108e-07
1.0957741e-07
1.0957391e-07
1.0957049e-07
1.0956724e-07
1.0956407e-07
1.0956107e-07
1.0955813e-07
1.0955537e-07
1.0955266e-07
1.0955012e-07
1.0954763e-07
1.0954532e-07
1.0954305e-07
1.0954096e-07
1.095389e-07
1.0953702e-07
1.0953516e-07
1.0953349e-07
1.0953183e-07
1.0953036e-07
1.0952887e-07
1.0952758e-07
1.0952624e-07
1.095252e-07
1.0952403e-07
1.0952319e-07
1.0952224e-07
1.0952159e-07
1.095208e-07
1.0952033e-07
1.095197e-07
1.095194e-07
1.0951892e-07
1.0951878e-07
1.0951845e-07
1.0951848e-07
1.095183e-07
1.0951841e-07
1.0951846e-07
1.0951861e-07
1.0951879e-07
1.0951903e-07
1.0951931e-07
1.0951964e-07
1.0952e-07
1.0952043e-07
1.0952084e-07
1.0952134e-07
1.0952178e-07
1.0952232e-07
1.0952276e-07
1.0952331e-07
1.095237e-07
1.0952424e-07
1.0952451e-07
1.09525e-07
1.0952507e-07
1.0952546e-07
1.0952524e-07
1.095254e-07
1.0952502e-07
4.1088316e-09
5.3997524e-08
1.005301e-07
1.0954582e-07
1.1078813e-07
1.109689e-07
1.1099513e-07
1.1099651e-07
1.1099359e-07
1.1098991e-07
1.1098621e-07
1.1098258e-07
1.1097908e-07
1.1097568e-07
1.1097241e-07
1.1096925e-07
1.1096619e-07
1.1096324e-07
1.1096038e-07
1.1095763e-07
1.1095496e-07
1.1095241e-07
1.1094992e-07
1.1094756e-07
1.1094524e-07
1.1094305e-07
1.109409e-07
1.1093889e-07
1.1093689e-07
1.1093505e-07
1.1093321e-07
1.1093153e-07
1.1092984e-07
1.1092832e-07
1.1092678e-07
1.1092542e-07
1.1092402e-07
1.1092281e-07
1.1092154e-07
1.1092048e-07
1.1091934e-07
1.1091842e-07
1.1091741e-07
1.1091663e-07
1.1091569e-07
1.1091511e-07
1.109143e-07
1.1091386e-07
1.1091317e-07
1.1091286e-07
1.1091228e-07
1.1091209e-07
1.1091161e-07
1.1091154e-07
1.1091116e-07
1.1091119e-07
1.109109e-07
1.1091103e-07
1.1091091e-07
1.1091102e-07
1.1091106e-07
1.1091118e-07
1.109113e-07
1.1091148e-07
1.1091166e-07
1.1091189e-07
1.109121e-07
1.1091239e-07
1.109126e-07
1.1091292e-07
1.1091312e-07
1.1091344e-07
1.1091359e-07
1.1091389e-07
1.1091394e-07
1.1091422e-07
1.1091406e-07
1.1091429e-07
1.1091389e-07
1.1091387e-07
1.1091334e-07
6.9575868e-09
7.5629534e-08
1.0863006e-07
1.1206399e-07
1.1240477e-07
1.1244354e-07
1.1244675e-07
1.1244532e-07
1.1244329e-07
1.1244117e-07
1.1243915e-07
1.1243714e-07
1.1243525e-07
1.1243337e-07
1.1243161e-07
1.1242986e-07
1.1242821e-07
1.1242658e-07
1.1242504e-07
1.1242351e-07
1.1242208e-07
1.1242066e-07
1.1241931e-07
1.12418e-07
1.1241675e-07
1.1241553e-07
1.1241436e-07
1.1241324e-07
1.1241216e-07
1.1241113e-07
1.1241013e-07
1.1240919e-07
1.1240827e-07
1.1240742e-07
1.1240658e-07
1.1240581e-07
1.1240504e-07
1.1240436e-07
1.1240366e-07
1.1240306e-07
1.1240243e-07
1.1240191e-07
1.1240134e-07
1.124009e-07
1.1240039e-07
1.1240005e-07
1.1239955e-07
1.1239934e-07
1.1239889e-07
1.1239875e-07
1.1239834e-07
1.1239828e-07
1.1239792e-07
1.1239793e-07
1.123976e-07
1.1239769e-07
1.123974e-07
1.1239755e-07
1.1239728e-07
1.1239748e-07
1.1239735e-07
1.1239746e-07
1.1239744e-07
1.1239753e-07
1.1239755e-07
1.1239768e-07
1.1239771e-07
1.1239787e-07
1.1239789e-07
1.1239807e-07
1.1239807e-07
1.1239826e-07
1.1239821e-07
1.123984e-07
1.1239827e-07
1.1239848e-07
1.123982e-07
1.1239834e-07
1.1239797e-07
1.1239793e-07
1.1239747e-07
8.5274449e-08
8.5279531e-08
8.5278789e-08
8.5272167e-08
8.5263761e-08
8.525421e-08
8.5244476e-08
8.5234588e-08
8.5224775e-08
8.521501e-08
8.52054e-08
8.5195889e-08
8.5186559e-08
8.5177344e-08
8.5168328e-08
8.5159443e-08
8.5150773e-08
8.5142253e-08
8.5133967e-08
8.5125853e-08
8.5117995e-08
8.5110337e-08
8.5102958e-08
8.509581e-08
8.5088965e-08
8.5082386e-08
8.5076138e-08
8.5070192e-08
8.5064602e-08
8.5059354e-08
8.5054489e-08
8.5050003e-08
8.5045926e-08
8.5042267e-08
8.5039041e-08
8.5036255e-08
8.5033943e-08
8.5032145e-08
8.5030877e-08
8.5030172e-08
8.5030011e-08
8.5030398e-08
8.5031293e-08
8.5032693e-08
8.5034558e-08
8.5036884e-08
8.5039623e-08
8.5042744e-08
8.5046143e-08
8.5049677e-08
8.5053041e-08
8.5055732e-08
8.5056816e-08
8.5054714e-08
8.5046703e-08
8.5028293e-08
8.4992139e-08
8.4926575e-08
8.4813397e-08
8.4624895e-08
8.4319792e-08
8.3838149e-08
8.3095215e-08
8.1974879e-08
8.0323962e-08
7.7950124e-08
7.4627798e-08
7.0119206e-08
6.4218452e-08
5.6824587e-08
4.8038628e-08
3.8256697e-08
2.8201825e-08
1.8826433e-08
1.1062891e-08
5.5055605e-09
2.1975607e-09
6.6396496e-10
1.8087529e-10
1.1845338e-10
1.4676713e-10
8.5491097e-08
8.5496566e-08
8.5495474e-08
8.5488599e-08
8.5479938e-08
8.547031e-08
8.5460453e-08
8.5450483e-08
8.5440582e-08
8.5430759e-08
8.5421081e-08
8.5411525e-08
8.540214e-08
8.539289e-08
8.538383e-08
8.5374918e-08
8.5366214e-08
8.5357674e-08
8.5349363e-08
8.5341236e-08
8.5333361e-08
8.5325694e-08
8.5318306e-08
8.5311152e-08
8.5304304e-08
8.5297722e-08
8.5291475e-08
8.5285527e-08
8.5279943e-08
8.5274692e-08
8.5269834e-08
8.5265344e-08
8.5261275e-08
8.5257607e-08
8.525439e-08
8.5251602e-08
8.5249291e-08
8.524747e-08
8.5246199e-08
8.5245469e-08
8.5245303e-08
8.5245665e-08
8.5246552e-08
8.5247926e-08
8.524978e-08
8.5252082e-08
8.5254816e-08
8.5257928e-08
8.5261352e-08
8.5264943e-08
8.5268458e-08
8.527144e-08
8.5273094e-08
8.5272021e-08
8.5265843e-08
8.5250568e-08
8.521967e-08
8.5162674e-08
8.506315e-08
8.4895871e-08
8.4622963e-08
8.4188911e-08
8.3514429e-08
8.2489605e-08
8.0967422e-08
7.8760046e-08
7.5642127e-08
7.1367893e-08
6.5710715e-08
5.8532903e-08
4.9884283e-08
4.010654e-08
2.9887502e-08
2.0189793e-08
1.2012546e-08
6.052133e-09
2.4406487e-09
7.363411e-10
1.8743398e-10
1.0941734e-10
1.3367639e-10
8.5719208e-08
8.5725015e-08
8.5723548e-08
8.5716367e-08
8.5707523e-08
8.5697759e-08
8.5687775e-08
8.5677713e-08
8.5667732e-08
8.5657846e-08
8.5648111e-08
8.5638508e-08
8.5629079e-08
8.5619794e-08
8.5610701e-08
8.5601764e-08
8.5593036e-08
8.5584478e-08
8.5576152e-08
8.5568013e-08
8.5560131e-08
8.5552458e-08
8.5545067e-08
8.5537912e-08
8.5531067e-08
8.5524487e-08
8.5518244e-08
8.55123e-08
8.5506722e-08
8.5501475e-08
8.5496624e-08
8.5492136e-08
8.5488073e-08
8.5484405e-08
8.5481192e-08
8.5478407e-08
8.5476099e-08
8.5474265e-08
8.5472984e-08
8.5472238e-08
8.5472062e-08
8.5472406e-08
8.547328e-08
8.5474632e-08
8.547647e-08
8.547875e-08
8.548147e-08
8.5484572e-08
8.5488012e-08
8.549165e-08
8.5495291e-08
8.5498529e-08
8.5500688e-08
8.5500542e-08
8.5496023e-08
8.5483613e-08
8.5457549e-08
8.540849e-08
8.5321703e-08
8.5174356e-08
8.4931915e-08
8.454325e-08
8.3934607e-08
8.3002499e-08
8.1606595e-08
7.9564492e-08
7.665247e-08
7.2618603e-08
6.7217468e-08
6.0275693e-08
5.1790733e-08
4.2044906e-08
3.168223e-08
2.1666399e-08
1.3059506e-08
6.6656546e-09
2.7187087e-09
8.2144183e-10
1.9706886e-10
1.0157438e-10
1.2207984e-10
8.5959537e-08
8.5965609e-08
8.5963725e-08
8.5956249e-08
8.5947201e-08
8.5937285e-08
8.5927176e-08
8.591702e-08
8.5906962e-08
8.5897012e-08
8.5887223e-08
8.5877573e-08
8.5868105e-08
8.5858786e-08
8.5849665e-08
8.5840704e-08
8.5831958e-08
8.5823385e-08
8.5815048e-08
8.5806903e-08
8.5799016e-08
8.5791342e-08
8.5783952e-08
8.5776801e-08
8.5769961e-08
8.5763388e-08
8.5757153e-08
8.5751217e-08
8.5745647e-08
8.574041e-08
8.5735566e-08
8.5731086e-08
8.5727029e-08
8.5723368e-08
8.5720157e-08
8.5717376e-08
8.5715074e-08
8.5713235e-08
8.5711941e-08
8.5711185e-08
8.5710994e-08
8.5711326e-08
8.5712182e-08
8.5713517e-08
8.5715334e-08
8.5717594e-08
8.5720295e-08
8.5723387e-08
8.572683e-08
8.5730508e-08
8.5734252e-08
8.5737715e-08
8.5740317e-08
8.5741e-08
8.5737972e-08
8.5728165e-08
8.5706514e-08
8.5664759e-08
8.5589769e-08
8.546103e-08
8.5247234e-08
8.4901594e-08
8.4355896e-08
8.3513277e-08
8.2240542e-08
8.0361616e-08
7.7655819e-08
7.3867055e-08
6.8733299e-08
6.204709e-08
5.375292e-08
4.4069274e-08
3.3587483e-08
2.326189e-08
1.4211838e-08
7.3537415e-09
3.036693e-09
9.2132048e-10
2.1015954e-10
9.4774617e-11
1.1161573e-10
8.6212869e-08
8.6219126e-08
8.6216769e-08
8.6209025e-08
8.6199741e-08
8.6189665e-08
8.6179431e-08
8.6169181e-08
8.6159047e-08
8.6149034e-08
8.6139194e-08
8.6129499e-08
8.6119995e-08
8.6110645e-08
8.6101499e-08
8.6092517e-08
8.6083756e-08
8.6075172e-08
8.6066828e-08
8.605868e-08
8.6050792e-08
8.6043123e-08
8.6035737e-08
8.6028595e-08
8.6021762e-08
8.6015202e-08
8.6008977e-08
8.6003056e-08
8.5997498e-08
8.5992275e-08
8.5987441e-08
8.5982975e-08
8.5978926e-08
8.5975275e-08
8.597207e-08
8.5969295e-08
8.5966998e-08
8.596516e-08
8.5963856e-08
8.596309e-08
8.5962887e-08
8.5963206e-08
8.5964045e-08
8.5965363e-08
8.5967157e-08
8.5969396e-08
8.5972076e-08
8.5975153e-08
8.5978595e-08
8.5982301e-08
8.5986129e-08
8.5989785e-08
8.5992773e-08
8.5994192e-08
8.5992497e-08
8.5985034e-08
8.5967392e-08
8.593232e-08
8.58682e-08
8.5756733e-08
8.5569735e-08
8.5264675e-08
8.4778869e-08
8.4022221e-08
8.2869088e-08
8.1150569e-08
7.8650449e-08
7.511052e-08
7.0254617e-08
6.3843226e-08
5.5767911e-08
4.6179308e-08