/*--------------------------------*- C++ -*----------------------------------*\
| =========                 |                                                 |
| \\      /  F ield         | OpenFOAM: The Open Source CFD Toolbox           |
|  \\    /   O peration     | Version:  v2006                                 |
|   \\  /    A nd           | Website:  www.openfoam.com                      |
|    \\/     M anipulation  |                                                 |
\*---------------------------------------------------------------------------*/
FoamFile
{
    version     2.0;
    format      ascii;
    class       volScalarField;
    location    "10000";
    object      nutMean;
}
// * * * * * * * * * * * * * * * * * * * * * * * * * * * * * * * * * * * * * //

dimensions      [0 2 -1 0 0 0 0];


internalField   nonuniform List<scalar> 
102907
(
3.8706936e-11
3.5320757e-10
3.6721805e-09
1.3831211e-08
3.0520385e-08
4.9145757e-08
6.5107479e-08
7.655704e-08
8.3880741e-08
8.8240833e-08
9.0721651e-08
9.2091469e-08
9.2831443e-08
9.3223898e-08
9.3428055e-08
9.3531444e-08
9.3581708e-08
9.3604353e-08
9.3612858e-08
9.3614255e-08
9.3612186e-08
9.3608508e-08
9.3604173e-08
9.3599651e-08
9.3595182e-08
9.3590879e-08
9.3586804e-08
9.3582977e-08
9.3579419e-08
9.357613e-08
9.3573123e-08
9.3570393e-08
9.3567951e-08
9.3565793e-08
9.3563927e-08
9.3562344e-08
9.3561044e-08
9.3560011e-08
9.3559237e-08
9.3558701e-08
9.3558428e-08
9.3558562e-08
9.3559183e-08
9.3560192e-08
9.3561528e-08
9.3563159e-08
9.356508e-08
9.3567278e-08
9.3569756e-08
9.3572505e-08
9.3575528e-08
9.3578818e-08
9.3582381e-08
9.3586212e-08
9.3590315e-08
9.3594689e-08
9.359934e-08
9.3604267e-08
9.3609478e-08
9.3614972e-08
9.3620758e-08
9.3626835e-08
9.3633213e-08
9.3639895e-08
9.3646889e-08
9.3654201e-08
9.3661844e-08
9.3669823e-08
9.3678157e-08
9.3686855e-08
9.3695939e-08
9.3705425e-08
9.3715339e-08
9.3725705e-08
9.3736557e-08
9.3747933e-08
9.3759883e-08
9.3772469e-08
9.3785776e-08
9.3799937e-08
9.3815141e-08
4.053976e-11
4.5409458e-10
4.5610197e-09
1.6398912e-08
3.4697719e-08
5.3878203e-08
6.9352738e-08
7.9872303e-08
8.630046e-08
8.9982343e-08
9.2008706e-08
9.3094962e-08
9.366588e-08
9.3960706e-08
9.4109758e-08
9.418248e-08
9.4215948e-08
9.4229498e-08
9.4233098e-08
9.4231835e-08
9.422829e-08
9.4223755e-08
9.421888e-08
9.4213982e-08
9.4209218e-08
9.4204663e-08
9.4200355e-08
9.4196309e-08
9.4192534e-08
9.4189034e-08
9.4185813e-08
9.4182873e-08
9.4180218e-08
9.4177847e-08
9.4175762e-08
9.4173961e-08
9.4172437e-08
9.4171179e-08
9.417017e-08
9.4169388e-08
9.4168813e-08
9.4168675e-08
9.4169063e-08
9.4169834e-08
9.4170912e-08
9.4172275e-08
9.417392e-08
9.4175837e-08
9.4178023e-08
9.4180475e-08
9.4183191e-08
9.4186172e-08
9.4189415e-08
9.4192921e-08
9.4196691e-08
9.4200726e-08
9.4205027e-08
9.4209599e-08
9.4214442e-08
9.421956e-08
9.4224955e-08
9.4230632e-08
9.4236594e-08
9.4242846e-08
9.4249394e-08
9.4256243e-08
9.42634e-08
9.4270876e-08
9.4278681e-08
9.4286826e-08
9.4295327e-08
9.4304199e-08
9.4313461e-08
9.4323137e-08
9.4333252e-08
9.434384e-08
9.4354941e-08
9.4366614e-08
9.4378928e-08
9.4392023e-08
9.4406066e-08
4.2994603e-11
5.859042e-10
5.6433578e-09
1.9337118e-08
3.9194934e-08
5.8685158e-08
7.3458151e-08
8.2966224e-08
8.8514194e-08
9.1570337e-08
9.3196374e-08
9.4041852e-08
9.4473561e-08
9.4690184e-08
9.4796162e-08
9.4845331e-08
9.4866169e-08
9.4873002e-08
9.4873027e-08
9.4869835e-08
9.4865212e-08
9.4860037e-08
9.4854743e-08
9.4849538e-08
9.4844522e-08
9.4839743e-08
9.4835224e-08
9.4830973e-08
9.4826997e-08
9.4823298e-08
9.4819878e-08
9.4816739e-08
9.4813881e-08
9.4811307e-08
9.4809015e-08
9.4807005e-08
9.4805268e-08
9.4803794e-08
9.4802563e-08
9.4801553e-08
9.4800739e-08
9.4800158e-08
9.4800436e-08
9.4800973e-08
9.4801801e-08
9.4802901e-08
9.4804279e-08
9.4805919e-08
9.4807822e-08
9.4809982e-08
9.48124e-08
9.4815075e-08
9.4818005e-08
9.4821192e-08
9.4824633e-08
9.4828333e-08
9.4832289e-08
9.4836507e-08
9.4840987e-08
9.4845731e-08
9.4850741e-08
9.485602e-08
9.4861569e-08
9.4867395e-08
9.4873499e-08
9.4879888e-08
9.4886567e-08
9.4893544e-08
9.4900825e-08
9.4908423e-08
9.4916346e-08
9.4924611e-08
9.4933231e-08
9.4942225e-08
9.4951613e-08
9.4961426e-08
9.4971691e-08
9.4982468e-08
9.4993808e-08
9.5005858e-08
9.5018774e-08
4.6403114e-11
7.580916e-10
6.9553517e-09
2.2674898e-08
4.3986974e-08
6.3509033e-08
7.7381689e-08
8.5826689e-08
9.0529677e-08
9.3019967e-08
9.4299913e-08
9.4944685e-08
9.5263871e-08
9.5419052e-08
9.5492032e-08
9.5523384e-08
9.5534926e-08
9.5536906e-08
9.5534376e-08
9.5529807e-08
9.5524406e-08
9.5518754e-08
9.5513134e-08
9.5507676e-08
9.5502445e-08
9.5497467e-08
9.5492757e-08
9.5488321e-08
9.548416e-08
9.5480276e-08
9.547667e-08
9.5473344e-08
9.5470296e-08
9.5467531e-08
9.5465044e-08
9.5462835e-08
9.5460896e-08
9.5459218e-08
9.5457777e-08
9.5456548e-08
9.5455491e-08
9.5454565e-08
9.545461e-08
9.5454955e-08
9.5455565e-08
9.5456408e-08
9.5457529e-08
9.5458898e-08
9.5460526e-08
9.5462402e-08
9.5464529e-08
9.5466904e-08
9.5469527e-08
9.54724e-08
9.5475518e-08
9.5478887e-08
9.5482503e-08
9.5486372e-08
9.5490492e-08
9.5494866e-08
9.5499493e-08
9.5504378e-08
9.5509519e-08
9.5514923e-08
9.5520588e-08
9.5526522e-08
9.5532726e-08
9.5539209e-08
9.5545973e-08
9.5553029e-08
9.5560384e-08
9.556805e-08
9.5576035e-08
9.5584358e-08
9.559303e-08
9.5602079e-08
9.5611524e-08
9.5621419e-08
9.5631805e-08
9.5642834e-08
9.5654647e-08
5.0955055e-11
9.8292678e-10
8.5385912e-09
2.6438079e-08
4.9038024e-08
6.8289441e-08
8.108757e-08
8.844907e-08
9.2359385e-08
9.4348352e-08
9.533489e-08
9.5815574e-08
9.6045559e-08
9.6153965e-08
9.620125e-08
9.6219755e-08
9.6224664e-08
9.6223222e-08
9.6218902e-08
9.6213367e-08
9.6207409e-08
9.6201404e-08
9.6195529e-08
9.6189865e-08
9.618445e-08
9.61793e-08
9.6174421e-08
9.6169818e-08
9.6165489e-08
9.6161437e-08
9.615766e-08
9.6154162e-08
9.6150939e-08
9.6147995e-08
9.6145327e-08
9.6142932e-08
9.6140804e-08
9.6138932e-08
9.6137295e-08
9.6135866e-08
9.6134603e-08
9.6133462e-08
9.6133056e-08
9.6133226e-08
9.6133628e-08
9.613428e-08
9.6135167e-08
9.6136268e-08
9.6137632e-08
9.6139229e-08
9.6141074e-08
9.6143155e-08
9.6145479e-08
9.6148043e-08
9.6150846e-08
9.6153888e-08
9.615717e-08
9.6160694e-08
9.6164459e-08
9.6168467e-08
9.6172717e-08
9.6177212e-08
9.618195e-08
9.6186935e-08
9.6192167e-08
9.6197651e-08
9.6203387e-08
9.6209381e-08
9.6215634e-08
9.6222156e-08
9.6228948e-08
9.6236024e-08
9.6243384e-08
9.6251047e-08
9.6259014e-08
9.6267313e-08
9.6275953e-08
9.6284984e-08
9.6294436e-08
9.6304464e-08
9.6315206e-08
5.6986348e-11
1.2763759e-09
1.0440331e-08
3.0646707e-08
5.4300051e-08
7.2964613e-08
8.4547107e-08
9.0835657e-08
9.4019474e-08
9.5573678e-08
9.6316601e-08
9.6665945e-08
9.6826552e-08
9.689996e-08
9.6928353e-08
9.6937536e-08
9.6937777e-08
9.693397e-08
9.6928423e-08
9.6922223e-08
9.6915872e-08
9.6909609e-08
9.6903538e-08
9.6897708e-08
9.689214e-08
9.6886843e-08
9.6881818e-08
9.6877069e-08
9.6872592e-08
9.686839e-08
9.6864461e-08
9.6860807e-08
9.6857425e-08
9.6854319e-08
9.6851483e-08
9.6848918e-08
9.6846614e-08
9.6844563e-08
9.6842743e-08
9.6841127e-08
9.6839672e-08
9.6838333e-08
9.6837593e-08
9.6837501e-08
9.6837663e-08
9.6838096e-08
9.6838764e-08
9.6839663e-08
9.684078e-08
9.6842103e-08
9.6843676e-08
9.6845471e-08
9.6847504e-08
9.6849767e-08
9.6852259e-08
9.6854983e-08
9.6857934e-08
9.6861121e-08
9.6864535e-08
9.6868183e-08
9.687206e-08
9.6876171e-08
9.688051e-08
9.6885083e-08
9.6889886e-08
9.6894927e-08
9.6900199e-08
9.6905712e-08
9.6911461e-08
9.6917457e-08
9.6923696e-08
9.693019e-08
9.6936936e-08
9.6943948e-08
9.6951225e-08
9.6958787e-08
9.6966639e-08
9.6974824e-08
9.6983363e-08
9.6992412e-08
9.7002117e-08
6.4924985e-11
1.6591318e-09
1.271387e-08
3.5312709e-08
5.9712937e-08
7.7474279e-08
8.7740196e-08
9.2995461e-08
9.5529107e-08
9.671466e-08
9.7259783e-08
9.7506403e-08
9.7615915e-08
9.7660753e-08
9.7676638e-08
9.7679512e-08
9.7676602e-08
9.7671213e-08
9.7664849e-08
9.7658203e-08
9.7651584e-08
9.7645136e-08
9.7638918e-08
9.7632961e-08
9.7627269e-08
9.7621853e-08
9.7616706e-08
9.7611834e-08
9.7607231e-08
9.7602902e-08
9.7598839e-08
9.759505e-08
9.7591527e-08
9.7588276e-08
9.758529e-08
9.7582571e-08
9.7580107e-08
9.7577893e-08
9.7575905e-08
9.7574119e-08
9.7572486e-08
9.7570966e-08
9.7570027e-08
9.75696e-08
9.7569465e-08
9.7569705e-08
9.7570149e-08
9.7570819e-08
9.7571709e-08
9.757282e-08
9.757414e-08
9.7575651e-08
9.7577404e-08
9.7579374e-08
9.7581562e-08
9.7583976e-08
9.7586603e-08
9.7589458e-08
9.7592529e-08
9.7595822e-08
9.7599332e-08
9.7603066e-08
9.7607011e-08
9.7611179e-08
9.761556e-08
9.7620164e-08
9.762498e-08
9.763002e-08
9.7635272e-08
9.764075e-08
9.7646444e-08
9.7652367e-08
9.7658508e-08
9.7664885e-08
9.7671483e-08
9.7678325e-08
9.7685406e-08
9.7692765e-08
9.7700414e-08
9.7708509e-08
9.7717209e-08
7.5388392e-11
2.1579521e-09
1.5418726e-08
4.043679e-08
6.5204991e-08
8.1762522e-08
9.0656124e-08
9.4943541e-08
9.6909589e-08
9.7789981e-08
9.8178363e-08
9.8346398e-08
9.8417812e-08
9.8443284e-08
9.8450024e-08
9.8448532e-08
9.8443519e-08
9.8437099e-08
9.8430213e-08
9.8423282e-08
9.841649e-08
9.840992e-08
9.8403601e-08
9.8397551e-08
9.8391769e-08
9.8386261e-08
9.8381021e-08
9.8376052e-08
9.8371348e-08
9.8366913e-08
9.8362742e-08
9.8358839e-08
9.8355197e-08
9.8351821e-08
9.8348705e-08
9.834585e-08
9.8343245e-08
9.8340886e-08
9.8338747e-08
9.8336807e-08
9.8335015e-08
9.8333331e-08
9.8332211e-08
9.8331576e-08
9.8331048e-08
9.8331107e-08
9.8331324e-08
9.8331769e-08
9.8332429e-08
9.8333304e-08
9.8334386e-08
9.8335677e-08
9.8337168e-08
9.8338852e-08
9.8340745e-08
9.8342857e-08
9.8345167e-08
9.8347698e-08
9.8350433e-08
9.8353378e-08
9.8356529e-08
9.8359891e-08
9.8363452e-08
9.836722e-08
9.8371187e-08
9.8375361e-08
9.837973e-08
9.8384303e-08
9.8389068e-08
9.8394037e-08
9.8399196e-08
9.8404558e-08
9.8410109e-08
9.8415861e-08
9.8421797e-08
9.8427935e-08
9.8434265e-08
9.8440819e-08
9.8447603e-08
9.845477e-08
9.8462503e-08
8.9274734e-11
2.8073574e-09
1.8620647e-08
4.6004883e-08
7.0694568e-08
8.5780786e-08
9.3293998e-08
9.6700156e-08
9.8183536e-08
9.8817807e-08
9.9085287e-08
9.9196306e-08
9.9237892e-08
9.9250812e-08
9.9251584e-08
9.9247283e-08
9.9240946e-08
9.9233899e-08
9.9226704e-08
9.9219614e-08
9.9212724e-08
9.9206087e-08
9.9199709e-08
9.9193605e-08
9.9187766e-08
9.91822e-08
9.9176895e-08
9.917186e-08
9.9167082e-08
9.9162571e-08
9.9158316e-08
9.9154324e-08
9.9150586e-08
9.914711e-08
9.9143885e-08
9.9140917e-08
9.9138191e-08
9.9135707e-08
9.9133437e-08
9.9131363e-08
9.9129431e-08
9.9127604e-08
9.9126317e-08
9.91255e-08
9.9124761e-08
9.9124456e-08
9.9124465e-08
9.9124707e-08
9.9125149e-08
9.9125798e-08
9.9126643e-08
9.912769e-08
9.9128931e-08
9.9130371e-08
9.9132002e-08
9.9133825e-08
9.9135822e-08
9.9138041e-08
9.9140449e-08
9.9143052e-08
9.9145853e-08
9.9148852e-08
9.9152035e-08
9.9155412e-08
9.9158973e-08
9.9162726e-08
9.9166656e-08
9.9170772e-08
9.917506e-08
9.917953e-08
9.9184166e-08
9.9188979e-08
9.9193952e-08
9.9199095e-08
9.9204386e-08
9.9209838e-08
9.9215437e-08
9.922121e-08
9.9227156e-08
9.9233425e-08
9.9240229e-08
1.079515e-10
3.6518186e-09
2.2391253e-08
5.1984095e-08
7.6092812e-08
8.9490756e-08
9.5662638e-08
9.8289672e-08
9.9374037e-08
9.9815395e-08
9.9992726e-08
1.0006134e-07
1.0008354e-07
1.0008776e-07
1.0008462e-07
1.0007856e-07
1.0007145e-07
1.0006405e-07
1.0005671e-07
1.0004955e-07
1.0004264e-07
1.0003598e-07
1.0002959e-07
1.0002347e-07
1.0001762e-07
1.0001203e-07
1.0000669e-07
1.0000162e-07
9.9996805e-08
9.9992246e-08
9.9987938e-08
9.9983885e-08
9.9980081e-08
9.9976529e-08
9.9973223e-08
9.9970165e-08
9.9967343e-08
9.9964756e-08
9.9962378e-08
9.9960191e-08
9.9958142e-08
9.9956194e-08
9.9954759e-08
9.9953775e-08
9.9952854e-08
9.9952346e-08
9.995199e-08
9.9952057e-08
9.9952298e-08
9.9952733e-08
9.9953354e-08
9.9954167e-08
9.9955162e-08
9.9956348e-08
9.9957714e-08
9.9959269e-08
9.9961003e-08
9.9962923e-08
9.9965017e-08
9.9967284e-08
9.9969744e-08
9.9972391e-08
9.9975206e-08
9.9978199e-08
9.9981364e-08
9.9984706e-08
9.9988207e-08
9.9991876e-08
9.9995697e-08
9.999968e-08
1.000038e-07
1.0000808e-07
1.0001249e-07
1.0001704e-07
1.0002171e-07
1.0002649e-07
1.0003139e-07
1.000364e-07
1.0004154e-07
1.0004694e-07
1.0005286e-07
1.3357461e-10
4.7486405e-09
2.680704e-08
5.8318375e-08
8.1307693e-08
9.2866861e-08
9.7779935e-08
9.973938e-08
1.0050391e-07
1.0079873e-07
1.0091163e-07
1.0094932e-07
1.0095907e-07
1.0095782e-07
1.0095232e-07
1.0094526e-07
1.0093775e-07
1.0093022e-07
1.0092285e-07
1.0091571e-07
1.0090882e-07
1.0090221e-07
1.0089585e-07
1.0088976e-07
1.0088393e-07
1.0087836e-07
1.0087303e-07
1.0086797e-07
1.0086314e-07
1.0085857e-07
1.0085425e-07
1.0085017e-07
1.0084632e-07
1.0084273e-07
1.0083937e-07
1.0083625e-07
1.0083336e-07
1.008307e-07
1.0082824e-07
1.0082596e-07
1.0082382e-07
1.0082178e-07
1.0082021e-07
1.0081908e-07
1.00818e-07
1.0081733e-07
1.0081673e-07
1.0081653e-07
1.0081656e-07
1.008168e-07
1.0081722e-07
1.0081781e-07
1.0081858e-07
1.0081952e-07
1.0082063e-07
1.0082192e-07
1.0082338e-07
1.0082501e-07
1.0082681e-07
1.0082878e-07
1.0083092e-07
1.0083322e-07
1.0083568e-07
1.008383e-07
1.0084108e-07
1.0084402e-07
1.008471e-07
1.0085034e-07
1.008537e-07
1.0085721e-07
1.0086084e-07
1.008646e-07
1.0086846e-07
1.0087244e-07
1.008765e-07
1.0088064e-07
1.0088485e-07
1.0088914e-07
1.008935e-07
1.0089808e-07
1.0090316e-07
1.6966943e-10
6.1718676e-09
3.1947241e-08
6.4924364e-08
8.6249353e-08
9.5898103e-08
9.9671709e-08
1.0107823e-07
1.0159505e-07
1.0178371e-07
1.0184904e-07
1.0186765e-07
1.0186939e-07
1.0186484e-07
1.0185801e-07
1.0185047e-07
1.0184282e-07
1.0183531e-07
1.0182801e-07
1.0182096e-07
1.0181417e-07
1.0180765e-07
1.0180138e-07
1.0179537e-07
1.0178961e-07
1.017841e-07
1.0177884e-07
1.0177381e-07
1.0176903e-07
1.0176449e-07
1.0176018e-07
1.0175611e-07
1.0175227e-07
1.0174866e-07
1.0174528e-07
1.0174214e-07
1.0173921e-07
1.017365e-07
1.0173398e-07
1.0173165e-07
1.0172945e-07
1.0172734e-07
1.0172567e-07
1.0172441e-07
1.017232e-07
1.0172238e-07
1.0172161e-07
1.017212e-07
1.0172094e-07
1.0172102e-07
1.0172124e-07
1.0172163e-07
1.0172218e-07
1.017229e-07
1.0172377e-07
1.0172481e-07
1.01726e-07
1.0172736e-07
1.0172887e-07
1.0173054e-07
1.0173237e-07
1.0173434e-07
1.0173647e-07
1.0173874e-07
1.0174115e-07
1.017437e-07
1.0174638e-07
1.0174919e-07
1.0175212e-07
1.0175517e-07
1.0175831e-07
1.0176157e-07
1.017649e-07
1.0176833e-07
1.017718e-07
1.0177534e-07
1.017789e-07
1.017825e-07
1.0178611e-07
1.0178989e-07
1.0179416e-07
2.2216999e-10
8.0178089e-09
3.7889593e-08
7.1688259e-08
9.0836491e-08
9.8588986e-08
1.0137014e-07
1.0233561e-07
1.0266776e-07
1.0278211e-07
1.0281543e-07
1.02822e-07
1.0281898e-07
1.0281262e-07
1.0280517e-07
1.0279751e-07
1.0278993e-07
1.0278255e-07
1.0277542e-07
1.0276854e-07
1.0276192e-07
1.0275555e-07
1.0274943e-07
1.0274355e-07
1.0273792e-07
1.0273253e-07
1.0272737e-07
1.0272244e-07
1.0271774e-07
1.0271327e-07
1.0270903e-07
1.0270501e-07
1.0270121e-07
1.0269763e-07
1.0269427e-07
1.0269113e-07
1.026882e-07
1.0268548e-07
1.0268295e-07
1.0268059e-07
1.0267835e-07
1.0267621e-07
1.0267446e-07
1.0267311e-07
1.0267179e-07
1.0267085e-07
1.0266994e-07
1.0266939e-07
1.0266889e-07
1.0266875e-07
1.0266879e-07
1.02669e-07
1.0266936e-07
1.0266986e-07
1.0267051e-07
1.0267132e-07
1.0267227e-07
1.0267336e-07
1.026746e-07
1.0267599e-07
1.0267751e-07
1.0267917e-07
1.0268097e-07
1.026829e-07
1.0268496e-07
1.0268714e-07
1.0268943e-07
1.0269184e-07
1.0269434e-07
1.0269695e-07
1.0269964e-07
1.0270241e-07
1.0270524e-07
1.0270813e-07
1.0271105e-07
1.0271401e-07
1.0271695e-07
1.0271989e-07
1.027228e-07
1.0272581e-07
1.027293e-07
3.0129472e-10
1.041323e-08
4.4702553e-08
7.8464973e-08
9.5003322e-08
1.0095939e-07
1.029119e-07
1.0354025e-07
1.0374249e-07
1.038037e-07
1.0381842e-07
1.0381792e-07
1.0381234e-07
1.0380516e-07
1.0379758e-07
1.0379004e-07
1.0378268e-07
1.0377555e-07
1.0376867e-07
1.0376204e-07
1.0375566e-07
1.0374952e-07
1.0374361e-07
1.0373794e-07
1.0373249e-07
1.0372728e-07
1.0372228e-07
1.0371751e-07
1.0371295e-07
1.0370861e-07
1.0370448e-07
1.0370056e-07
1.0369685e-07
1.0369335e-07
1.0369005e-07
1.0368697e-07
1.0368407e-07
1.0368138e-07
1.0367886e-07
1.0367651e-07
1.0367428e-07
1.0367215e-07
1.0367035e-07
1.0366893e-07
1.0366753e-07
1.036665e-07
1.0366549e-07
1.0366482e-07
1.0366418e-07
1.0366385e-07
1.0366363e-07
1.036637e-07
1.0366388e-07
1.036642e-07
1.0366465e-07
1.0366524e-07
1.0366596e-07
1.0366682e-07
1.036678e-07
1.0366891e-07
1.0367015e-07
1.0367152e-07
1.0367301e-07
1.0367461e-07
1.0367633e-07
1.0367816e-07
1.0368008e-07
1.036821e-07
1.036842e-07
1.0368639e-07
1.0368863e-07
1.0369095e-07
1.0369329e-07
1.0369569e-07
1.0369808e-07
1.0370049e-07
1.0370284e-07
1.0370518e-07
1.0370742e-07
1.0370972e-07
1.0371246e-07
4.2492022e-10
1.3528223e-08
5.2431454e-08
8.5081411e-08
9.8706334e-08
1.0304324e-07
1.0433607e-07
1.0471901e-07
1.0483338e-07
1.0486164e-07
1.0486513e-07
1.0486082e-07
1.0485409e-07
1.0484675e-07
1.0483936e-07
1.0483214e-07
1.0482512e-07
1.0481836e-07
1.0481182e-07
1.0480553e-07
1.0479947e-07
1.0479364e-07
1.0478802e-07
1.0478263e-07
1.0477744e-07
1.0477248e-07
1.0476771e-07
1.0476316e-07
1.047588e-07
1.0475465e-07
1.0475069e-07
1.0474693e-07
1.0474336e-07
1.0474e-07
1.0473681e-07
1.0473382e-07
1.0473101e-07
1.0472839e-07
1.0472593e-07
1.0472364e-07
1.0472146e-07
1.0471937e-07
1.0471757e-07
1.0471611e-07
1.0471467e-07
1.0471358e-07
1.047125e-07
1.0471174e-07
1.0471099e-07
1.0471055e-07
1.0471013e-07
1.0471002e-07
1.0471004e-07
1.047102e-07
1.0471047e-07
1.0471087e-07
1.0471137e-07
1.0471201e-07
1.0471275e-07
1.0471362e-07
1.0471459e-07
1.0471569e-07
1.0471688e-07
1.0471818e-07
1.0471957e-07
1.0472107e-07
1.0472263e-07
1.0472429e-07
1.0472601e-07
1.047278e-07
1.0472962e-07
1.0473151e-07
1.047334e-07
1.0473533e-07
1.0473722e-07
1.0473912e-07
1.0474093e-07
1.047427e-07
1.0474435e-07
1.0474599e-07
1.0474801e-07
6.2456558e-10
1.7597691e-08
6.1074949e-08
9.1345792e-08
1.0192986e-07
1.0488613e-07
1.056822e-07
1.0589864e-07
1.0595386e-07
1.0596436e-07
1.0596206e-07
1.0595608e-07
1.0594913e-07
1.0594205e-07
1.059351e-07
1.0592835e-07
1.0592182e-07
1.0591553e-07
1.0590945e-07
1.0590359e-07
1.0589794e-07
1.0589251e-07
1.0588727e-07
1.0588225e-07
1.0587741e-07
1.0587277e-07
1.0586831e-07
1.0586405e-07
1.0585997e-07
1.0585608e-07
1.0585236e-07
1.0584883e-07
1.0584547e-07
1.058423e-07
1.0583928e-07
1.0583645e-07
1.0583378e-07
1.0583129e-07
1.0582894e-07
1.0582675e-07
1.0582466e-07
1.0582267e-07
1.0582091e-07
1.0581945e-07
1.0581802e-07
1.058169e-07
1.0581579e-07
1.0581498e-07
1.0581416e-07
1.0581363e-07
1.0581311e-07
1.0581285e-07
1.0581265e-07
1.0581269e-07
1.0581281e-07
1.0581305e-07
1.0581337e-07
1.0581381e-07
1.0581434e-07
1.0581498e-07
1.0581571e-07
1.0581655e-07
1.0581746e-07
1.0581848e-07
1.0581957e-07
1.0582076e-07
1.0582199e-07
1.0582331e-07
1.0582466e-07
1.0582608e-07
1.0582752e-07
1.05829e-07
1.0583047e-07
1.0583196e-07
1.0583339e-07
1.0583482e-07
1.0583614e-07
1.0583741e-07
1.0583852e-07
1.0583958e-07
1.0584093e-07
9.5581091e-10
2.2959762e-08
7.0547052e-08
9.706477e-08
1.0468944e-07
1.0654189e-07
1.0698807e-07
1.07098e-07
1.071199e-07
1.0712063e-07
1.0711572e-07
1.0710939e-07
1.0710279e-07
1.0709629e-07
1.0708996e-07
1.0708384e-07
1.0707793e-07
1.0707223e-07
1.0706672e-07
1.0706142e-07
1.070563e-07
1.0705138e-07
1.0704663e-07
1.0704206e-07
1.0703767e-07
1.0703345e-07
1.070294e-07
1.0702552e-07
1.070218e-07
1.0701825e-07
1.0701485e-07
1.0701163e-07
1.0700855e-07
1.0700563e-07
1.0700286e-07
1.0700026e-07
1.0699779e-07
1.0699548e-07
1.069933e-07
1.0699127e-07
1.0698933e-07
1.069875e-07
1.0698582e-07
1.0698442e-07
1.0698304e-07
1.0698194e-07
1.0698084e-07
1.0698001e-07
1.0697918e-07
1.069786e-07
1.0697802e-07
1.0697767e-07
1.0697734e-07
1.0697722e-07
1.0697721e-07
1.0697731e-07
1.0697748e-07
1.0697775e-07
1.0697809e-07
1.0697853e-07
1.0697904e-07
1.0697965e-07
1.0698032e-07
1.0698108e-07
1.0698189e-07
1.0698279e-07
1.0698372e-07
1.0698472e-07
1.0698574e-07
1.0698682e-07
1.069879e-07
1.0698901e-07
1.0699009e-07
1.0699118e-07
1.0699221e-07
1.0699322e-07
1.0699411e-07
1.0699493e-07
1.0699558e-07
1.0699614e-07
1.069969e-07
1.5168966e-09
3.0129732e-08
8.0620205e-08
1.0206778e-07
1.0703196e-07
1.0806898e-07
1.0829049e-07
1.0833568e-07
1.0834155e-07
1.0833823e-07
1.0833274e-07
1.0832686e-07
1.08321e-07
1.0831531e-07
1.083098e-07
1.0830448e-07
1.0829933e-07
1.0829437e-07
1.0828958e-07
1.0828496e-07
1.082805e-07
1.0827621e-07
1.0827206e-07
1.0826808e-07
1.0826424e-07
1.0826056e-07
1.0825701e-07
1.0825362e-07
1.0825036e-07
1.0824725e-07
1.0824427e-07
1.0824143e-07
1.0823872e-07
1.0823616e-07
1.0823371e-07
1.082314e-07
1.0822921e-07
1.0822716e-07
1.0822522e-07
1.0822341e-07
1.0822169e-07
1.0822007e-07
1.0821855e-07
1.0821725e-07
1.0821599e-07
1.0821496e-07
1.0821393e-07
1.0821313e-07
1.0821232e-07
1.0821173e-07
1.0821114e-07
1.0821075e-07
1.0821036e-07
1.0821016e-07
1.0820998e-07
1.0820999e-07
1.0821003e-07
1.0821016e-07
1.0821035e-07
1.0821062e-07
1.0821095e-07
1.0821135e-07
1.0821181e-07
1.0821234e-07
1.082129e-07
1.0821354e-07
1.082142e-07
1.0821491e-07
1.0821564e-07
1.082164e-07
1.0821716e-07
1.0821793e-07
1.0821868e-07
1.0821942e-07
1.0822009e-07
1.0822073e-07
1.0822126e-07
1.0822171e-07
1.0822199e-07
1.0822215e-07
1.0822241e-07
2.4827071e-09
3.995804e-08
9.0854216e-08
1.0623844e-07
1.0903264e-07
1.0952588e-07
1.0961738e-07
1.0963081e-07
1.0962953e-07
1.0962518e-07
1.0962024e-07
1.0961531e-07
1.0961049e-07
1.0960583e-07
1.0960133e-07
1.0959698e-07
1.0959278e-07
1.0958873e-07
1.0958481e-07
1.0958103e-07
1.0957738e-07
1.0957387e-07
1.0957048e-07
1.0956721e-07
1.0956406e-07
1.0956104e-07
1.0955813e-07
1.0955535e-07
1.0955267e-07
1.0955011e-07
1.0954765e-07
1.0954531e-07
1.0954307e-07
1.0954095e-07
1.0953892e-07
1.09537e-07
1.0953518e-07
1.0953347e-07
1.0953185e-07
1.0953034e-07
1.095289e-07
1.0952756e-07
1.0952628e-07
1.0952516e-07
1.0952407e-07
1.0952317e-07
1.0952227e-07
1.0952157e-07
1.0952084e-07
1.095203e-07
1.0951974e-07
1.0951936e-07
1.0951896e-07
1.0951873e-07
1.0951848e-07
1.095184e-07
1.0951833e-07
1.0951837e-07
1.0951844e-07
1.0951858e-07
1.0951875e-07
1.0951899e-07
1.0951925e-07
1.0951959e-07
1.0951994e-07
1.0952035e-07
1.0952077e-07
1.0952124e-07
1.095217e-07
1.095222e-07
1.0952267e-07
1.0952317e-07
1.0952362e-07
1.0952407e-07
1.0952444e-07
1.095248e-07
1.0952503e-07
1.095252e-07
1.095252e-07
1.0952509e-07
1.0952497e-07
4.1499293e-09
5.4015083e-08
1.0053327e-07
1.0954619e-07
1.1078807e-07
1.1096879e-07
1.1099501e-07
1.109964e-07
1.1099347e-07
1.109898e-07
1.109861e-07
1.1098248e-07
1.1097898e-07
1.1097559e-07
1.1097232e-07
1.1096916e-07
1.109661e-07
1.1096315e-07
1.109603e-07
1.1095755e-07
1.109549e-07
1.1095234e-07
1.1094986e-07
1.1094748e-07
1.1094519e-07
1.1094298e-07
1.1094085e-07
1.1093882e-07
1.1093685e-07
1.1093498e-07
1.1093317e-07
1.1093146e-07
1.1092981e-07
1.1092825e-07
1.1092675e-07
1.1092534e-07
1.1092399e-07
1.1092273e-07
1.1092152e-07
1.109204e-07
1.1091932e-07
1.1091833e-07
1.1091739e-07
1.1091654e-07
1.1091569e-07
1.10915e-07
1.109143e-07
1.1091376e-07
1.1091317e-07
1.1091275e-07
1.1091228e-07
1.1091197e-07
1.1091162e-07
1.1091141e-07
1.1091116e-07
1.1091106e-07
1.1091091e-07
1.1091089e-07
1.1091088e-07
1.1091093e-07
1.1091098e-07
1.1091109e-07
1.1091121e-07
1.1091139e-07
1.1091156e-07
1.1091179e-07
1.1091201e-07
1.1091227e-07
1.1091251e-07
1.1091279e-07
1.1091303e-07
1.1091329e-07
1.1091351e-07
1.1091372e-07
1.1091387e-07
1.1091401e-07
1.1091404e-07
1.1091403e-07
1.1091386e-07
1.1091361e-07
1.1091329e-07
6.9836995e-09
7.5638054e-08
1.0863094e-07
1.1206401e-07
1.1240468e-07
1.1244346e-07
1.1244665e-07
1.1244524e-07
1.124432e-07
1.124411e-07
1.1243906e-07
1.1243707e-07
1.1243517e-07
1.1243331e-07
1.1243154e-07
1.124298e-07
1.1242815e-07
1.1242653e-07
1.1242498e-07
1.1242346e-07
1.1242202e-07
1.1242061e-07
1.1241926e-07
1.1241795e-07
1.124167e-07
1.1241548e-07
1.1241432e-07
1.124132e-07
1.1241212e-07
1.1241108e-07
1.1241009e-07
1.1240915e-07
1.1240824e-07
1.1240737e-07
1.1240654e-07
1.1240576e-07
1.1240501e-07
1.1240431e-07
1.1240363e-07
1.1240301e-07
1.124024e-07
1.1240185e-07
1.1240132e-07
1.1240084e-07
1.1240037e-07
1.1239997e-07
1.1239956e-07
1.1239925e-07
1.123989e-07
1.1239865e-07
1.1239836e-07
1.1239818e-07
1.1239794e-07
1.1239782e-07
1.1239764e-07
1.1239757e-07
1.1239744e-07
1.1239741e-07
1.1239734e-07
1.1239736e-07
1.1239734e-07
1.1239738e-07
1.1239739e-07
1.1239747e-07
1.1239751e-07
1.1239761e-07
1.1239767e-07
1.1239778e-07
1.1239785e-07
1.1239797e-07
1.1239803e-07
1.1239814e-07
1.1239818e-07
1.1239826e-07
1.1239826e-07
1.1239829e-07
1.1239822e-07
1.1239815e-07
1.1239796e-07
1.1239775e-07
1.1239744e-07
8.5279991e-08
8.5284741e-08
8.5283978e-08
8.5277434e-08
8.5269196e-08
8.5259778e-08
8.525015e-08
8.5240393e-08
8.5230678e-08
8.5221048e-08
8.5211547e-08
8.5202187e-08
8.5192982e-08
8.5183938e-08
8.5175066e-08
8.5166368e-08
8.5157857e-08
8.5149533e-08
8.5141409e-08
8.5133486e-08
8.5125778e-08
8.5118285e-08
8.5111022e-08
8.5103988e-08
8.5097201e-08
8.5090661e-08
8.5084389e-08
8.5078389e-08
8.5072686e-08
8.5067293e-08
8.506224e-08
8.5057547e-08
8.505325e-08
8.5049373e-08
8.5045947e-08
8.5042995e-08
8.5040565e-08
8.5038687e-08
8.5037391e-08
8.5036684e-08
8.5036561e-08
8.5037001e-08
8.5037986e-08
8.5039495e-08
8.504151e-08
8.5044007e-08
8.5046952e-08
8.5050281e-08
8.5053897e-08
8.5057623e-08
8.5061156e-08
8.5063961e-08
8.5065106e-08
8.5062983e-08
8.5054868e-08
8.5036232e-08
8.4999712e-08
8.4933589e-08
8.4819609e-08
8.4629975e-08
8.4323322e-08
8.3839592e-08
8.309392e-08
8.1970078e-08
8.0314823e-08
7.7935827e-08
7.4607702e-08
7.0093076e-08
6.4186767e-08
5.6788845e-08
4.800151e-08
3.8221848e-08
2.8173076e-08
1.8806554e-08
1.1052475e-08
5.5029013e-09
2.1998356e-09
6.6895205e-10
1.8786667e-10
1.2781822e-10
1.5898258e-10
8.5496491e-08
8.5501606e-08
8.5500488e-08
8.5493689e-08
8.5485181e-08
8.5475675e-08
8.5465935e-08
8.5456085e-08
8.544629e-08
8.5436592e-08
8.542703e-08
8.5417614e-08
8.5408361e-08
8.5399273e-08
8.5390362e-08
8.5381629e-08
8.5373086e-08
8.5364736e-08
8.5356589e-08
8.5348647e-08
8.5340924e-08
8.5333419e-08
8.5326148e-08
8.5319109e-08
8.5312319e-08
8.530578e-08
8.5299511e-08
8.5293517e-08
8.5287821e-08
8.5282437e-08
8.5277393e-08
8.527271e-08
8.5268421e-08
8.5264551e-08
8.5261134e-08
8.5258186e-08
8.5255745e-08
8.5253852e-08
8.5252539e-08
8.5251813e-08
8.5251671e-08
8.525209e-08
8.5253053e-08
8.5254537e-08
8.5256526e-08
8.5258997e-08
8.5261919e-08
8.5265237e-08
8.5268864e-08
8.5272647e-08
8.5276321e-08
8.5279422e-08
8.5281138e-08
8.5280061e-08
8.5273795e-08
8.5258334e-08
8.5227121e-08
8.5169651e-08
8.5069441e-08
8.4901196e-08
8.462696e-08
8.4191117e-08
8.3514271e-08
8.24864e-08
8.0960411e-08
7.8748457e-08
7.5625314e-08
7.1345529e-08
6.5683078e-08
5.8501168e-08
4.9850736e-08
4.0074459e-08
2.9860519e-08
2.0170747e-08
1.2002324e-08
6.0493477e-09
2.4426546e-09
7.4091375e-10
1.9379586e-10
1.1787956e-10
1.4468713e-10
8.5724465e-08
8.5729907e-08
8.5728414e-08
8.572132e-08
8.5712605e-08
8.5702971e-08
8.5693106e-08
8.568316e-08
8.5673284e-08
8.5663516e-08
8.5653894e-08
8.5644424e-08
8.5635123e-08
8.5625992e-08
8.5617043e-08
8.5608277e-08
8.5599707e-08
8.5591331e-08
8.5583165e-08
8.5575207e-08
8.5567473e-08
8.5559959e-08
8.5552683e-08
8.5545642e-08
8.5538855e-08
8.5532321e-08
8.5526059e-08
8.5520074e-08
8.551439e-08
8.5509019e-08
8.5503989e-08
8.5499319e-08
8.5495044e-08
8.5491185e-08
8.5487778e-08
8.5484841e-08
8.5482399e-08
8.5480494e-08
8.5479167e-08
8.5478426e-08
8.5478267e-08
8.5478667e-08
8.5479608e-08
8.5481067e-08
8.5483029e-08
8.5485471e-08
8.5488368e-08
8.5491669e-08
8.54953e-08
8.5499125e-08
8.5502918e-08
8.5506276e-08
8.5508498e-08
8.5508359e-08
8.5503769e-08
8.5491205e-08
8.5464872e-08
8.541541e-08
8.5328036e-08
8.5179871e-08
8.4936298e-08
8.4546108e-08
8.3935437e-08
8.3000706e-08
8.160149e-08
7.9555367e-08
7.6638684e-08
7.2599771e-08
6.7193694e-08
6.0247872e-08
5.176077e-08
4.2015705e-08
3.165718e-08
2.1648354e-08
1.3049601e-08
6.6628255e-09
2.7205022e-09
8.2565815e-10
2.0287599e-10
1.0923774e-10
1.3202633e-10
8.5964648e-08
8.5970358e-08
8.5968453e-08
8.5961059e-08
8.5952141e-08
8.5942357e-08
8.5932364e-08
8.5922323e-08
8.5912367e-08
8.5902532e-08
8.589285e-08
8.5883328e-08
8.5873981e-08
8.586481e-08
8.5855826e-08
8.5847029e-08
8.5838433e-08
8.5830037e-08
8.5821854e-08
8.5813883e-08
8.5806139e-08
8.5798621e-08
8.5791343e-08
8.5784304e-08
8.5777522e-08
8.5770996e-08
8.5764744e-08
8.5758773e-08
8.5753104e-08
8.574775e-08
8.5742736e-08
8.5738084e-08
8.5733824e-08
8.5729981e-08
8.5726586e-08
8.572366e-08
8.5721227e-08
8.5719315e-08
8.5717975e-08
8.571722e-08
8.5717046e-08
8.5717428e-08
8.5718348e-08
8.5719782e-08
8.5721716e-08
8.5724129e-08
8.5726998e-08
8.5730278e-08
8.5733905e-08
8.5737762e-08
8.5741653e-08
8.5745234e-08
8.5747901e-08
8.5748599e-08
8.5745514e-08
8.5735577e-08
8.5713698e-08
8.5671602e-08
8.5596113e-08
8.546668e-08
8.5251924e-08
8.490499e-08
8.4357563e-08
8.3512696e-08
8.2237099e-08
8.035466e-08
7.7644734e-08
7.385141e-08
6.8713065e-08
6.202291e-08
5.3726358e-08
4.4042861e-08
3.3564355e-08
2.324487e-08
1.4202282e-08
7.3508971e-09
3.0383102e-09
9.2522981e-10
2.1547879e-10
1.0172997e-10
1.2061631e-10
8.6217835e-08
8.6223738e-08
8.6221369e-08
8.6213695e-08
8.6204549e-08
8.6194605e-08
8.6184486e-08
8.617435e-08
8.6164315e-08
8.6154414e-08
8.6144676e-08
8.6135105e-08
8.6125715e-08
8.6116505e-08
8.6107489e-08
8.6098664e-08
8.6090046e-08
8.6081631e-08
8.6073435e-08
8.6065454e-08
8.6057705e-08
8.6050185e-08
8.6042909e-08
8.6035877e-08
8.6029102e-08
8.6022589e-08
8.6016352e-08
8.6010398e-08
8.6004748e-08
8.5999414e-08
8.5994421e-08
8.5989791e-08
8.5985551e-08
8.5981726e-08
8.5978346e-08
8.5975433e-08
8.5973012e-08
8.5971098e-08
8.5969748e-08
8.5968981e-08
8.5968792e-08
8.5969158e-08
8.5970057e-08
8.5971466e-08
8.5973371e-08
8.5975754e-08
8.5978592e-08
8.5981848e-08
8.5985465e-08
8.5989341e-08
8.5993311e-08
8.5997081e-08
8.6000135e-08
8.6001573e-08
8.5999834e-08
8.5992263e-08
8.5974426e-08
8.5939063e-08
8.587452e-08
8.5762465e-08
8.5574656e-08
8.5268501e-08
8.478123e-08
8.4022665e-08
8.2867074e-08
8.1145505e-08
7.8641749e-08
7.509773e-08
7.0237599e-08
6.3822411e-08
5.5744549e-08
4.6155581e-08