/*--------------------------------*- C++ -*----------------------------------*\
| =========                 |                                                 |
| \\      /  F ield         | OpenFOAM: The Open Source CFD Toolbox           |
|  \\    /   O peration     | Version:  v2006                                 |
|   \\  /    A nd           | Website:  www.openfoam.com                      |
|    \\/     M anipulation  |                                                 |
\*---------------------------------------------------------------------------*/
FoamFile
{
    version     2.0;
    format      ascii;
    class       volScalarField;
    location    "10000";
    object      omega;
}
// * * * * * * * * * * * * * * * * * * * * * * * * * * * * * * * * * * * * * //

dimensions      [0 0 -1 0 0 0 0];


internalField   nonuniform List<scalar> 
102907
(
15.259265
3.0633556
1.2163449
0.67099645
0.45304927
0.35286223
0.30362784
0.27862261
0.2657142
0.25899444
0.2554751
0.25361635
0.25261891
0.2520674
0.25174648
0.25154498
0.25140574
0.25129957
0.25121159
0.25113431
0.2510639
0.25099848
0.25093709
0.25087927
0.25082476
0.25077347
0.25072534
0.25068036
0.25063853
0.25059987
0.25056439
0.25053213
0.25050309
0.25047731
0.25045477
0.25043549
0.25041939
0.25040642
0.25039641
0.25038926
0.25038495
0.25038513
0.25039067
0.25040092
0.25041514
0.25043293
0.25045406
0.25047838
0.25050582
0.25053636
0.25056997
0.25060664
0.25064639
0.25068922
0.25073513
0.25078413
0.25083624
0.25089148
0.25094988
0.25101145
0.25107625
0.25114429
0.25121565
0.25129035
0.2513685
0.25145016
0.25153545
0.25162446
0.25171738
0.25181431
0.2519155
0.25202112
0.25213148
0.25224681
0.25236756
0.25249407
0.25262701
0.25276699
0.25291513
0.25307283
0.25324258
14.321926
2.8911924
1.1552295
0.6428385
0.43970425
0.34770138
0.3033368
0.28127404
0.27012942
0.26444882
0.26152915
0.26000898
0.25919832
0.25874727
0.25847864
0.25830302
0.25817545
0.25807341
0.25798565
0.25790657
0.25783341
0.25776477
0.25769999
0.25763871
0.25758077
0.25752609
0.25747463
0.25742638
0.25738135
0.25733953
0.25730098
0.25726566
0.25723365
0.25720492
0.2571795
0.25715734
0.25713844
0.25712265
0.25710986
0.25709985
0.25709255
0.25708872
0.25709211
0.2570998
0.25711147
0.25712661
0.25714511
0.25716672
0.25719147
0.25721926
0.25725013
0.25728402
0.25732099
0.25736096
0.25740403
0.25745011
0.2574993
0.25755154
0.25760692
0.25766539
0.25772705
0.25779185
0.25785991
0.25793119
0.25800585
0.25808385
0.25816538
0.25825044
0.25833925
0.25843183
0.25852847
0.25862924
0.25873446
0.25884428
0.25895912
0.25907924
0.25920525
0.25933769
0.25947761
0.25962636
0.25978647
13.466368
2.7330775
1.0987482
0.61702853
0.42797632
0.34381046
0.30407588
0.28476633
0.27523793
0.27048744
0.26809143
0.26685955
0.26620394
0.265834
0.26560625
0.26544995
0.26533038
0.26523046
0.26514185
0.26506043
0.26498424
0.26491226
0.26484403
0.26477928
0.26471792
0.26465985
0.26460509
0.26455358
0.26450536
0.2644604
0.26441877
0.26438042
0.26434543
0.26431374
0.26428543
0.2642604
0.26423868
0.26422008
0.26420452
0.26419166
0.26418132
0.26417329
0.26417443
0.26417976
0.26418883
0.2642013
0.26421713
0.26423601
0.26425803
0.26428303
0.26431111
0.26434217
0.26437628
0.26441337
0.2644535
0.26449662
0.26454281
0.264592
0.26464428
0.26469958
0.26475802
0.26481951
0.26488419
0.26495198
0.26502305
0.26509733
0.26517499
0.26525602
0.26534061
0.26542877
0.26552075
0.26561658
0.26571656
0.26582076
0.2659296
0.26604322
0.26616221
0.266287
0.26641859
0.2665583
0.26670874
12.683405
2.5875234
1.0464298
0.59340636
0.4178241
0.34118684
0.30585181
0.28910808
0.28105031
0.27712437
0.27518029
0.27419054
0.27366158
0.2733559
0.27315935
0.27301698
0.27290246
0.27280308
0.27271282
0.27262867
0.27254928
0.27247389
0.27240221
0.27233401
0.27226925
0.27220784
0.2721498
0.27209506
0.27204369
0.27199563
0.27195095
0.27190959
0.27187163
0.27183702
0.27180582
0.27177793
0.27175339
0.271732
0.27171366
0.27169803
0.27168481
0.27167347
0.27166988
0.27167358
0.27168059
0.27169032
0.27170349
0.27171958
0.27173884
0.27176102
0.27178627
0.27181445
0.27184566
0.27187979
0.27191695
0.27195704
0.27200017
0.27204623
0.27209535
0.27214741
0.27220255
0.27226065
0.27232186
0.27238609
0.27245347
0.27252394
0.27259766
0.27267455
0.27275485
0.27283848
0.27292571
0.27301649
0.27311113
0.27320962
0.27331234
0.27341937
0.27353124
0.27364827
0.27377143
0.27390201
0.2740427
11.9651
2.4531578
0.99782859
0.57183144
0.40922039
0.33983617
0.30867585
0.29431098
0.28758022
0.28437725
0.2828181
0.28202864
0.28160131
0.28134551
0.2811721
0.28103929
0.28092752
0.28082754
0.28073504
0.28064792
0.28056523
0.28048644
0.28041134
0.28033975
0.28027166
0.28020697
0.28014571
0.28008782
0.28003334
0.27998224
0.27993454
0.27989023
0.27984935
0.27981186
0.27977779
0.27974709
0.27971973
0.27969558
0.27967449
0.27965612
0.27964014
0.27962601
0.27961716
0.27961852
0.27962318
0.2796309
0.27964148
0.27965474
0.27967121
0.27969055
0.27971293
0.27973819
0.27976645
0.2797976
0.27983172
0.27986874
0.27990872
0.27995161
0.27999748
0.28004623
0.28009799
0.28015264
0.2802103
0.28027086
0.28033449
0.28040105
0.28047073
0.28054341
0.28061931
0.28069831
0.28078069
0.28086632
0.28095553
0.28104819
0.28114471
0.28124502
0.28134967
0.28145882
0.28157347
0.28169479
0.28182571
11.304571
2.3287632
0.95254453
0.55219416
0.40215811
0.33977506
0.3125652
0.30039092
0.29484555
0.29226848
0.29103228
0.29040566
0.29005831
0.28984026
0.28968347
0.28955677
0.28944603
0.28934459
0.28924952
0.2891593
0.28907333
0.28899118
0.28891276
0.28883787
0.28876656
0.28869868
0.28863431
0.28857334
0.28851586
0.28846177
0.28841116
0.28836395
0.28832023
0.28827989
0.28824304
0.28820954
0.28817945
0.28815255
0.28812876
0.28810767
0.28808899
0.2880721
0.28805959
0.28805674
0.2880589
0.28806409
0.28807226
0.28808331
0.28809708
0.28811348
0.28813301
0.28815529
0.28818059
0.28820868
0.28823974
0.28827361
0.28831042
0.28835004
0.28839262
0.28843798
0.2884863
0.28853739
0.28859143
0.28864825
0.28870804
0.2887706
0.28883615
0.28890451
0.28897593
0.2890502
0.28912763
0.28920801
0.28929168
0.28937842
0.28946862
0.28956212
0.28965944
0.28976062
0.28986664
0.28997861
0.2900997
10.695827
2.2132252
0.91020862
0.53441321
0.39664883
0.34102981
0.31754214
0.30736794
0.30286892
0.30082578
0.29985597
0.29935922
0.29907339
0.29888314
0.29873778
0.29861458
0.29850362
0.2984002
0.2983024
0.29820907
0.29811992
0.29803453
0.29795294
0.29787489
0.2978005
0.29772957
0.29766224
0.29759831
0.29753795
0.29748098
0.29742758
0.29737755
0.29733109
0.297288
0.29724846
0.29721224
0.29717949
0.29714989
0.29712347
0.29709972
0.29707841
0.29705881
0.29704372
0.29703631
0.2970351
0.29703765
0.29704321
0.29705164
0.29706294
0.29707699
0.29709374
0.29711295
0.29713531
0.29716028
0.29718825
0.29721891
0.29725251
0.2972888
0.29732803
0.29736991
0.29741474
0.29746219
0.29751254
0.29756551
0.29762139
0.29767985
0.29774121
0.29780514
0.29787198
0.29794142
0.29801381
0.29808883
0.29816686
0.29824757
0.29833137
0.29841793
0.29850784
0.29860093
0.29869823
0.29880075
0.29891199
10.133632
2.105501
0.87048081
0.51843862
0.39272375
0.34363616
0.32363415
0.31526689
0.31167853
0.31008328
0.30932899
0.30893361
0.30869393
0.30852353
0.30838558
0.30826402
0.30815202
0.30804636
0.30794579
0.30784951
0.30775733
0.30766893
0.30758435
0.30750336
0.30742608
0.3073523
0.30728217
0.30721548
0.30715239
0.30709273
0.30703666
0.30698398
0.30693489
0.30688918
0.30684704
0.30680823
0.3067729
0.30674073
0.30671176
0.30668545
0.30666157
0.30663939
0.30662179
0.30661148
0.30660541
0.30660499
0.30660794
0.30661369
0.3066223
0.30663365
0.30664778
0.30666456
0.306684
0.30670583
0.30673066
0.30675811
0.30678839
0.30682134
0.30685714
0.30689551
0.30693675
0.30698051
0.30702708
0.30707614
0.307128
0.3071823
0.30723934
0.30729877
0.30736094
0.30742545
0.30749269
0.30756226
0.30763455
0.30770913
0.30778642
0.30786596
0.30794835
0.30803327
0.30812176
0.30821475
0.30831614
9.6133954
2.0045888
0.83304752
0.50425448
0.39043399
0.34763864
0.33087386
0.32411804
0.3213093
0.32008256
0.3194989
0.31918071
0.31897473
0.31881801
0.31868458
0.31856339
0.31844991
0.31834198
0.31823879
0.31813979
0.31804486
0.31795372
0.31786644
0.31778279
0.31770289
0.31762651
0.31755382
0.31748459
0.31741901
0.31735685
0.31729832
0.31724318
0.31719165
0.31714349
0.31709891
0.31705765
0.31701989
0.31698528
0.31695389
0.31692514
0.31689882
0.31687417
0.31685415
0.3168411
0.31683211
0.3168266
0.31682699
0.31683008
0.31683601
0.31684461
0.31685595
0.31686989
0.31688654
0.31690574
0.31692758
0.31695183
0.31697872
0.31700831
0.31704062
0.3170754
0.31711301
0.31715302
0.31719572
0.3172408
0.31728857
0.31733862
0.31739126
0.3174461
0.31750349
0.31756299
0.31762498
0.31768901
0.31775546
0.31782381
0.31789451
0.31796695
0.31804173
0.3181184
0.31819801
0.31828142
0.31837299
9.1310798
1.9094761
0.79762294
0.49188339
0.38985075
0.35308996
0.33929919
0.33395819
0.33180414
0.33087398
0.33042218
0.33016126
0.32997919
0.32983157
0.32970068
0.32957917
0.32946412
0.3293541
0.32924862
0.32914725
0.32904994
0.32895646
0.32886684
0.32878089
0.3286987
0.32862007
0.32854513
0.32847369
0.32840588
0.32834152
0.32828077
0.32822344
0.32816968
0.32811931
0.3280725
0.32802901
0.32798899
0.32795213
0.32791846
0.32788746
0.32785886
0.32783193
0.32780958
0.32779393
0.32778221
0.32777353
0.32776924
0.32776976
0.32777307
0.32777897
0.32778754
0.32779864
0.32781237
0.32782859
0.32784741
0.32786871
0.32789258
0.32791886
0.3279476
0.32797875
0.32801267
0.32804889
0.32808764
0.32812867
0.32817226
0.32821799
0.32826615
0.32831632
0.32836884
0.32842324
0.3284799
0.32853829
0.32859881
0.32866087
0.32872489
0.32879015
0.32885725
0.32892563
0.3289963
0.3290701
0.32915194
8.6831248
1.8190904
0.76395362
0.48139115
0.39106504
0.36005035
0.34895424
0.34483228
0.34321581
0.34251842
0.34216577
0.34194622
0.34178071
0.341639
0.3415095
0.34138744
0.34127104
0.34115932
0.34105203
0.34094879
0.34084962
0.34075426
0.34066279
0.340575
0.34049096
0.34041051
0.34033373
0.34026046
0.34019081
0.3401246
0.34006199
0.34000278
0.33994712
0.33989483
0.33984606
0.3398006
0.33975857
0.33971969
0.33968399
0.33965094
0.33962029
0.3395913
0.33956678
0.33954868
0.33953439
0.33952307
0.33951547
0.33951155
0.33951239
0.33951569
0.33952156
0.33952987
0.33954071
0.33955395
0.3395697
0.33958784
0.33960847
0.33963146
0.33965692
0.3396847
0.33971489
0.33974731
0.339782
0.33981894
0.33985829
0.33989964
0.33994322
0.33998866
0.34003621
0.34008546
0.34013667
0.34018937
0.34024387
0.34029957
0.34035684
0.34041489
0.34047425
0.34053434
0.34059604
0.34066024
0.34073254
8.2663833
1.7322457
0.73183079
0.47289271
0.39418668
0.36858683
0.35989012
0.35679516
0.35560873
0.35508894
0.35480878
0.35461839
0.3544642
0.35432645
0.35419788
0.3540755
0.35395824
0.35384546
0.353737
0.35363257
0.35353217
0.35343558
0.35334286
0.35325381
0.35316851
0.35308676
0.35300868
0.35293407
0.35286307
0.35279548
0.35273144
0.35267077
0.35261362
0.35255978
0.35250943
0.35246233
0.35241862
0.35237803
0.35234058
0.35230578
0.35227336
0.3522426
0.35221614
0.35219577
0.35217909
0.35216535
0.35215516
0.3521478
0.35214465
0.35214545
0.35214874
0.35215436
0.35216239
0.35217273
0.35218545
0.35220046
0.35221784
0.35223749
0.35225949
0.35228369
0.35231021
0.35233886
0.35236974
0.35240265
0.35243769
0.35247461
0.35251356
0.3525542
0.35259672
0.35264073
0.35268645
0.35273339
0.35278181
0.35283111
0.35288161
0.35293251
0.35298429
0.35303601
0.35308874
0.35314307
0.35320598
7.8780708
1.6475767
0.7011102
0.46655858
0.39934289
0.37877303
0.37216694
0.36991425
0.36906162
0.36867311
0.36844459
0.36827449
0.36812828
0.36799359
0.36786613
0.36774403
0.36762674
0.36751374
0.367405
0.36730021
0.36719943
0.3671024
0.36700922
0.36691965
0.36683381
0.36675146
0.36667274
0.36659744
0.36652569
0.3664573
0.36639241
0.36633082
0.36627269
0.3662178
0.36616632
0.36611803
0.36607307
0.36603116
0.36599235
0.36595617
0.36592234
0.36589018
0.36586207
0.36583972
0.36582088
0.36580496
0.36579245
0.36578261
0.36577607
0.36577306
0.36577395
0.36577702
0.36578237
0.3657899
0.36579968
0.36581164
0.36582583
0.36584217
0.36586072
0.36588138
0.3659042
0.36592903
0.36595594
0.36598475
0.36601552
0.36604802
0.36608234
0.36611819
0.36615569
0.36619447
0.36623469
0.36627586
0.36631822
0.36636111
0.36640484
0.36644855
0.36649269
0.36653614
0.36657997
0.36662448
0.3666777
7.5157241
1.5634592
0.67174127
0.46262025
0.40667566
0.39068928
0.38585637
0.3842726
0.38367024
0.38337575
0.38318329
0.38302758
0.38288762
0.38275601
0.38263041
0.38250962
0.38239342
0.38228133
0.38217343
0.38206937
0.38196927
0.38187281
0.38178017
0.38169102
0.38160555
0.38152347
0.38144497
0.38136977
0.38129809
0.38122963
0.38116462
0.38110278
0.38104433
0.380989
0.38093702
0.38088809
0.38084243
0.3807997
0.38076004
0.38072293
0.38068819
0.38065509
0.38062572
0.38060174
0.38058108
0.38056329
0.38054874
0.38053677
0.38052786
0.38052156
0.38051894
0.38051963
0.38052248
0.38052737
0.38053434
0.38054336
0.38055445
0.38056756
0.38058274
0.38059988
0.38061905
0.38064007
0.38066304
0.38068773
0.38071425
0.38074228
0.380772
0.380803
0.38083551
0.38086898
0.38090374
0.38093909
0.38097545
0.3810119
0.38104898
0.3810855
0.38112219
0.38115745
0.38119266
0.38122743
0.38127085
7.1771713
1.4779196
0.64381028
0.46137422
0.41633835
0.40442391
0.40104541
0.39997292
0.39955099
0.399322
0.39915484
0.3990102
0.39887615
0.39874849
0.39862605
0.39850803
0.39839439
0.39828468
0.39817904
0.39807708
0.39797899
0.3978844
0.39779353
0.397706
0.39762206
0.39754136
0.39746416
0.39739009
0.39731946
0.39725188
0.39718767
0.39712644
0.39706855
0.39701356
0.39696186
0.396913
0.39686736
0.39682445
0.39678459
0.39674711
0.39671208
0.39667861
0.39664856
0.39662334
0.39660136
0.39658204
0.3965659
0.3965521
0.3965413
0.39653277
0.39652718
0.3965244
0.39652508
0.3965275
0.3965319
0.39653811
0.39654629
0.39655626
0.3965682
0.39658188
0.3965975
0.39661474
0.39663386
0.39665442
0.39667675
0.39670031
0.39672548
0.3967516
0.39677916
0.39680731
0.39683668
0.39686622
0.39689666
0.39692672
0.39695729
0.39698674
0.3970162
0.39704354
0.39707045
0.3970958
0.39712935
6.8605173
1.3885361
0.61759983
0.4631824
0.42849147
0.4200756
0.4178412
0.41714192
0.41684512
0.41666116
0.41651281
0.4163781
0.41625088
0.4161288
0.41601142
0.41589809
0.41578893
0.41568345
0.41558189
0.41548378
0.4153894
0.41529829
0.41521077
0.41512637
0.41504545
0.41496752
0.41489299
0.41482135
0.41475305
0.41468754
0.41462531
0.4145658
0.41450953
0.4144559
0.41440547
0.4143576
0.41431289
0.41427062
0.41423138
0.41419429
0.41415974
0.41412663
0.41409662
0.41407074
0.41404803
0.41402771
0.41401049
0.41399534
0.41398311
0.41397281
0.41396535
0.41395979
0.41395739
0.41395757
0.41395972
0.41396333
0.41396884
0.41397583
0.41398472
0.41399507
0.41400729
0.41402084
0.4140362
0.41405272
0.41407094
0.41409007
0.41411075
0.41413206
0.41415473
0.41417765
0.41420168
0.41422553
0.41425016
0.41427402
0.41429824
0.41432091
0.41434341
0.41436325
0.41438233
0.41439883
0.41442266
6.564142
1.2923399
0.59366871
0.46846649
0.44329836
0.4377587
0.43637762
0.43593665
0.43572378
0.43557174
0.43543929
0.4353153
0.43519692
0.43508287
0.43497305
0.43486692
0.43476466
0.4346658
0.43457059
0.43447855
0.43439
0.43430446
0.43422228
0.43414295
0.43406687
0.43399354
0.43392338
0.43385586
0.43379145
0.43372959
0.43367078
0.43361445
0.43356113
0.43351021
0.43346226
0.43341663
0.43337393
0.43333345
0.4332958
0.43326015
0.43322693
0.43319521
0.43316609
0.43314039
0.43311764
0.4330971
0.4330794
0.43306358
0.43305042
0.43303901
0.43303017
0.43302298
0.43301834
0.43301544
0.43301573
0.43301707
0.43302017
0.43302451
0.43303054
0.43303782
0.43304677
0.43305686
0.43306857
0.43308124
0.43309542
0.43311032
0.43312658
0.43314324
0.43316109
0.43317897
0.43319778
0.43321616
0.43323515
0.43325311
0.43327127
0.43328755
0.43330355
0.43331648
0.43332847
0.4333369
0.43335151
6.2867258
1.1857492
0.57296109
0.47769583
0.46092166
0.45760913
0.45682282
0.45655094
0.45639415
0.45626727
0.4561509
0.45604011
0.45593368
0.45583098
0.45573197
0.45563626
0.45554398
0.45545475
0.45536877
0.45528565
0.45520562
0.45512829
0.45505395
0.45498216
0.45491328
0.45484683
0.45478323
0.45472196
0.45466348
0.45460723
0.45455375
0.4545024
0.45445378
0.45440723
0.45436339
0.4543215
0.45428231
0.45424499
0.45421031
0.45417728
0.45414665
0.4541174
0.45409049
0.4540659
0.4540442
0.45402427
0.45400706
0.4539913
0.45397808
0.45396618
0.45395674
0.45394852
0.4539427
0.45393799
0.45393577
0.45393509
0.45393632
0.45393832
0.4539419
0.45394638
0.45395238
0.45395925
0.45396758
0.45397661
0.45398698
0.45399784
0.45400989
0.45402212
0.45403536
0.45404844
0.45406228
0.45407549
0.4540892
0.45410164
0.45411423
0.45412466
0.45413485
0.45414168
0.45414761
0.45414913
0.45415547
6.0273122
1.0645152
0.55693087
0.49135694
0.48152174
0.47979598
0.47939043
0.47922417
0.47910761
0.4790044
0.47890695
0.47881339
0.47872324
0.47863617
0.47855217
0.47847096
0.4783926
0.47831683
0.47824378
0.47817314
0.47810509
0.47803932
0.47797605
0.47791494
0.47785624
0.47779962
0.47774535
0.47769306
0.47764309
0.47759501
0.47754922
0.47750524
0.47746351
0.47742353
0.47738578
0.4773497
0.47731583
0.47728354
0.47725344
0.47722476
0.47719814
0.47717282
0.47714961
0.47712762
0.47710822
0.47709012
0.47707452
0.47705994
0.47704765
0.47703622
0.47702708
0.47701865
0.47701251
0.47700692
0.47700363
0.47700076
0.47700051
0.47700062
0.47700226
0.47700437
0.47700786
0.47701185
0.4770172
0.47702288
0.47702984
0.4770369
0.47704515
0.47705318
0.47706228
0.47707079
0.47708022
0.47708858
0.47709766
0.47710503
0.47711289
0.47711816
0.47712365
0.47712538
0.47712677
0.47712294
0.47712267
5.7853981
0.92368117
0.54768652
0.50990398
0.50526017
0.50453615
0.50435085
0.50425164
0.50416954
0.50409308
0.50401974
0.50394917
0.50388097
0.50381517
0.50375156
0.50369013
0.50363076
0.5035734
0.50351801
0.50346448
0.50341286
0.50336296
0.50331493
0.50326851
0.50322393
0.50318085
0.50313959
0.50309973
0.5030617
0.50302497
0.50299008
0.50295639
0.50292454
0.50289381
0.50286495
0.5028371
0.50281114
0.50278608
0.50276296
0.50274058
0.5027201
0.5027003
0.5026826
0.50266536
0.50265004
0.50263517
0.50262291
0.50261072
0.50260091
0.50259103
0.50258354
0.50257586
0.50257057
0.50256498
0.50256177
0.50255812
0.50255689
0.50255523
0.50255578
0.502556
0.50255757
0.5025592
0.50256204
0.50256488
0.50256881
0.50257258
0.50257737
0.50258174
0.50258704
0.50259163
0.502597
0.5026013
0.50260621
0.50260953
0.50261332
0.50261473
0.50261657
0.50261486
0.50261307
0.5026068
0.50260202
5.5610592
0.75829688
0.54830552
0.53370822
0.53231656
0.53211511
0.53204657
0.53199724
0.53195181
0.53190876
0.53186694
0.53182695
0.53178794
0.53175064
0.53171421
0.53167937
0.53164533
0.53161278
0.53158099
0.5315506
0.53152093
0.5314926
0.53146496
0.53143857
0.53141288
0.53138837
0.53136456
0.53134186
0.53131986
0.53129892
0.5312787
0.53125946
0.53124095
0.53122336
0.53120654
0.53119054
0.53117535
0.53116092
0.53114734
0.53113439
0.53112232
0.53111082
0.53110035
0.53109031
0.53108126
0.53107236
0.53106501
0.53105748
0.53105156
0.53104526
0.53104071
0.53103555
0.53103227
0.53102821
0.53102618
0.53102309
0.53102219
0.53102006
0.53102028
0.53101906
0.53101981
0.53101962
0.53102093
0.53102147
0.53102331
0.53102427
0.5310266
0.53102777
0.53103035
0.53103152
0.53103409
0.53103498
0.5310372
0.5310374
0.53103888
0.53103774
0.53103797
0.53103495
0.53103269
0.5310271
0.53102207
0.17202247
0.1720805
0.17207271
0.17202183
0.17195193
0.17187439
0.17179456
0.17171407
0.17163369
0.17155408
0.17147525
0.17139754
0.17132082
0.17124538
0.17117106
0.17109815
0.1710265
0.1709564
0.17088773
0.1708208
0.1707555
0.17069213
0.17063063
0.17057129
0.17051409
0.17045929
0.17040692
0.17035722
0.17031024
0.17026622
0.17022522
0.17018746
0.17015304
0.17012215
0.17009492
0.17007147
0.17005223
0.17003752
0.17002764
0.17002272
0.17002273
0.17002746
0.1700367
0.17005022
0.17006787
0.17008949
0.17011495
0.17014416
0.17017701
0.17021343
0.17025341
0.17029707
0.17034473
0.17039711
0.17045564
0.17052286
0.17060322
0.1707042
0.17083813
0.17102485
0.17129571
0.17169946
0.17231064
0.17324183
0.17466089
0.17681596
0.18007171
0.18496318
0.19227839
0.20319037
0.21947737
0.2439093
0.28096519
0.33826071
0.42964031
0.58262908
0.85896412
1.4221169
2.8223718
7.7607161
42.012434
0.17379457
0.17385526
0.17384557
0.17379194
0.1737198
0.17364096
0.17355962
0.17347771
0.17339605
0.17331523
0.17323529
0.17315652
0.17307882
0.17300243
0.17292722
0.17285346
0.17278101
0.17271015
0.17264078
0.17257317
0.17250724
0.17244328
0.17238123
0.17232136
0.17226368
0.17220843
0.17215563
0.17210554
0.17205821
0.17201385
0.17197253
0.17193448
0.17189978
0.17186865
0.17184119
0.1718176
0.17179806
0.1717831
0.17177297
0.17176786
0.17176769
0.17177231
0.17178143
0.17179489
0.17181246
0.17183404
0.17185947
0.17188868
0.17192153
0.17195798
0.17199798
0.17204162
0.17208915
0.17214122
0.17219903
0.17226487
0.17234267
0.17243916
0.17256548
0.17273969
0.17299051
0.17336287
0.17392596
0.1747849
0.17609749
0.17809833
0.1811341
0.18571581
0.19259911
0.20291201
0.21836811
0.24163973
0.2770509
0.3319541
0.41971017
0.56685854
0.83285336
1.3749177
2.7216967
7.4656964
40.340263
0.17567479
0.17573771
0.17572558
0.17566879
0.1755949
0.17551425
0.17543127
0.17534788
0.17526489
0.17518283
0.17510174
0.17502188
0.17494316
0.17486579
0.17478968
0.17471505
0.17464181
0.17457018
0.17450009
0.1744318
0.17436525
0.17430068
0.17423809
0.17417771
0.17411955
0.17406385
0.17401065
0.17396019
0.17391249
0.17386781
0.1738262
0.17378787
0.17375291
0.17372154
0.17369386
0.17367012
0.17365038
0.17363516
0.1736248
0.17361951
0.17361919
0.17362369
0.17363272
0.17364609
0.1736636
0.17368513
0.17371054
0.17373974
0.1737726
0.17380908
0.17384909
0.17389272
0.17394015
0.17399194
0.17404912
0.17411369
0.17418914
0.17428148
0.1744007
0.17456316
0.17479501
0.17513748
0.17565449
0.1764438
0.17765315
0.17950362
0.18232381
0.18660065
0.19305728
0.20277685
0.21740851
0.23952787
0.27330519
0.32583267
0.4099932
0.55135611
0.80713597
1.3284419
2.6227823
7.1767544
38.704948
0.17767179
0.17773641
0.17772123
0.17766129
0.17758531
0.1775027
0.17741799
0.17733307
0.1772487
0.17716536
0.17708309
0.17700211
0.17692235
0.176844
0.17676697
0.17669146
0.17661739
0.17654499
0.17647419
0.17640521
0.17633803
0.17627288
0.17620973
0.17614885
0.17609022
0.17603409
0.17598049
0.17592966
0.17588163
0.17583664
0.17579473
0.17575614
0.17572094
0.17568935
0.17566146
0.17563753
0.17561768
0.17560222
0.17559164
0.17558618
0.17558572
0.1755901
0.17559904
0.17561234
0.17562979
0.17565127
0.17567665
0.17570584
0.17573872
0.17577521
0.17581525
0.17585887
0.17590623
0.17595777
0.1760144
0.17607783
0.17615115
0.17623967
0.17635231
0.17650379
0.1767178
0.17703198
0.17750506
0.17822758
0.1793373
0.18104181
0.18365163
0.18762955
0.19366625
0.20280013
0.2166165
0.23759533
0.26975539
0.31993234
0.40053896
0.53619236
0.78191554
1.2828478
2.5258605
6.8941409
37.107504
0.17979511
0.17986078
0.17984184
0.1797789
0.17970042
0.17961571
0.1795292
0.1794427
0.17935691
0.17927226
0.17918877
0.17910666
0.17902583
0.17894647
0.1788685
0.1787921
0.17871721
0.17864403
0.1785725
0.17850285
0.17843504
0.1783693
0.17830562
0.17824423
0.17818514
0.17812859
0.17807461
0.17802342
0.17797506
0.17792977
0.1778876
0.17784876
0.17781333
0.17778153
0.17775345
0.17772935
0.17770936
0.17769374
0.17768294
0.17767731
0.17767672
0.177681
0.17768985
0.17770308
0.17772046
0.1777419
0.17776725
0.17779643
0.17782931
0.17786582
0.17790588
0.17794951
0.1779968
0.17804814
0.17810427
0.1781667
0.17823808
0.1783231
0.17842968
0.17857095
0.17876826
0.17905575
0.17948713
0.18014581
0.18115968
0.1827229
0.18512789
0.1888133
0.19443727
0.20299364
0.2160044
0.23585513
0.26641541
0.3142686
0.39136533
0.52138828
0.75721628
1.2381608
2.4309683
6.6179722
35.548842
0.18205542
0.18212136
0.18209805
0.1820319
0.18195067
0.18186374
0.18177536
0.18168724
0.18159998
0.18151398
0.18142925
0.18134596
0.18126404
0.18118366
0.18110473
0.18102744
0.18095171
0.18087774
0.18080549
0.18073516
0.18066673
0.18060041
0.18053619
0.18047431
0.18041478
0.18035782
0.18030346
0.18025193
0.18020327
0.1801577
0.18011527
0.18007621
0.18004057
0.18000858
0.17998032
0.17995606
0.17993592
0.1799202
0.17990919
0.17990339
0.17990268
0.17990687
0.17991564
0.17992879
0.17994611
0.1799675
0.17999281
0.18002197
0.18005485
0.18009138
0.18013146
0.18017509
0.18022233
0.1802735
0.18032921
0.18039073
0.18046037
0.18054222
0.18064322
0.18077506
0.18095681
0.18121925
0.18161121
0.18220912
0.18313113
0.18455802
0.18676416
0.19016397
0.19538304
0.20337075
0.21558626
0.23432206
0.2633011
0.30885905
0.38249287
0.50696874
0.73306743
1.1944162
2.3381568
6.3483904
34.029759
0.18446447
0.18452974
0.18450153
0.18443181
0.18434765
0.1842584
0.18416809
0.18407828
0.18398952
0.18390214
0.18381613
0.18373165
0.18364862
0.18356719
0.1834873
0.18340909
0.18333252
0.18325777
0.18318479
0.18311379
0.18304474
0.18297785
0.18291312
0.18285076
0.1827908
0.18273344
0.18267873
0.18262687
0.18257793
0.1825321
0.18248944
0.18245017
0.18241434
0.18238218
0.18235376
0.18232935
0.18230908
0.18229325
0.18228207
0.18227612
0.18227529
0.18227939
0.18228808
0.18230117
0.18231842
0.18233976
0.18236502
0.18239416
0.18242702
0.18246356
0.18250365
0.18254729
0.18259449
0.18264551
0.18270084
0.18276157
0.18282965
0.18290863
0.18300456
0.18312772
0.18329505
0.18353412
0.183889
0.18442933
0.18526365
0.1865595
0.1885732
0.19169491
0.19651758
0.20394618
0.21537752
0.2330123
0.26042959
0.30372253
0.37394353
0.49296055
0.70950192
1.1516509
2.2474724
6.0855049
32.550929
0.18703543
0.18709887
0.18706528
0.18699159
0.18690432
0.18681266
0.18672035
0.18662882
0.1865385
0.1864497
0.18636237
0.18627668
0.18619251
0.18611003
0.18602915
0.18595003
0.18587262
0.18579708
0.18572339
0.18565172
0.18558206
0.18551462
0.18544938
0.18538657
0.18532619
0.18526846
0.18521342
0.18516127
0.18511206
0.185066
0.18502314
0.18498368
0.18494768
0.18491536
0.1848868
0.18486226
0.18484187
0.18482593
0.18481464
0.18480854
0.1848076
0.18481162
0.18482023
0.18483325
0.18485043
0.1848717
0.18489691
0.18492601
0.18495885
0.18499538
0.18503547
0.18507911
0.18512627
0.18517717
0.18523217
0.1852922
0.1853589
0.1854353
0.18552663
0.18564188
0.18579594
0.18601331
0.18633352
0.18681957
0.1875706
0.188741
0.19056914
0.19342085
0.19785637
0.20473622
0.21539524
0.23194359
0.25781946
0.29887901
0.36574031
0.47939218
0.68655509
1.109907
2.1589644
5.8294204
31.112917
0.18978299
0.18984324
0.18980374
0.18972568
0.18963515
0.189541
0.18944664
0.18935333
0.18926142
0.18917116
0.18908249
0.18899555
0.18891023
0.18882668
0.18874482
0.18866478
0.18858653
0.18851021
0.18843581
0.18836349
0.18829325
0.18822526
0.18815955
0.1880963
0.18803554
0.18797746
0.18792212
0.1878697
0.18782026
0.18777399
0.18773095
0.18769133
0.18765519
0.18762274
0.18759406
0.1875694
0.1875489
0.18753287
0.18752149
0.18751525
0.18751422
0.18751816
0.1875267
0.18753964
0.18755675
0.18757794
0.18760309
0.18763213
0.18766493
0.18770144
0.18774152
0.18778514
0.18783226
0.18788303
0.18793776
0.18799717
0.18806264
0.18813674
0.18822395
0.18833201
0.18847394
0.18867132
0.1889593
0.18939449
0.1900668
0.1911177
0.19276764
0.19535813
0.19941656
0.20575888
0.21565825
0.2311355
0.25549092
0.29434998
0.35790761
0.46629403
0.66426652
1.0692311
2.0726837
5.5802226
29.716168
0.19272361
0.19277915
0.19273307
0.19265034
0.19255642
0.19245971
0.19236323
0.19226809
0.19217454
0.19208279
0.19199276
0.19190455
0.19181806
0.19173343
0.19165058
0.19156963
0.19149054
0.19141346
0.19133837
0.19126542
0.19119461
0.19112611
0.19105995
0.19099629
0.19093518
0.19087679
0.19082118
0.19076853
0.19071889
0.19067245
0.19062926
0.19058951
0.19055326
0.1905207
0.19049193
0.19046717
0.19044659
0.19043047
0.19041903
0.19041267
0.19041155
0.19041542
0.19042389
0.19043675
0.19045378
0.19047488
0.19049995
0.19052891
0.19056166
0.19059811
0.19063816
0.19068174
0.19072882
0.19077947
0.19083393
0.1908928
0.19095719
0.19102925
0.19111278
0.19121438
0.19134531
0.19152439
0.19178263
0.19217046
0.19276884
0.19370649
0.19518611
0.19752487
0.20121714
0.20703417
0.21618747
0.2306096
0.25346603
0.29015822
0.35047069
0.45369768
0.64267856
1.0296761
1.9886845
5.3379834
28.361017
0.19587582
0.1959249
0.19587153
0.19578385
0.19568642
0.19558708
0.19548843
0.19539142
0.19529619
0.19520291
0.19511147
0.19502198
0.19493432
0.19484861
0.19476476
0.19468291
0.19460301
0.19452518
0.19444942
0.19437587
0.19430453
0.19423556
0.19416898
0.19410496
0.19404354
0.19398488
0.19392904
0.1938762
0.1938264
0.19377982
0.19373653
0.19369668
0.19366036
0.19362773
0.19359889
0.19357407
0.19355342
0.19353724
0.19352574
0.19351928
0.1935181
0.1935219
0.1935303
0.19354307
0.19356
0.193581
0.19360596
0.19363483
0.19366749
0.19370387
0.19374385
0.19378737
0.19383437
0.1938849
0.19393912
0.1939975
0.19406093
0.1941312
0.19421146
0.1943073
0.19442832
0.1945908
0.1948218
0.19516585
0.19569525
0.19652623
0.19784393
0.19994118
0.20327921
0.20858425
0.2170061
0.2303898
0.25176894
0.2863281
0.34345567
0.44163551
0.62183662
0.99130272
1.9070289
5.1027665
27.047685
0.19926055
0.19930112
0.19923977
0.19914688
0.19904585
0.19894381
0.19884294
0.19874401
0.19864706
0.19855222
0.19845936
0.19836856
0.19827972
0.19819293
0.19810811
0.19802537
0.19794467
0.19786613
0.19778973
0.19771561
0.19764378
0.19757438
0.19750744
0.1974431
0.19738142
0.19732254
0.19726654
0.19721355
0.19716365
0.19711699
0.19707364
0.19703374
0.19699738
0.19696472
0.19693585
0.196911
0.1968903
0.19687407
0.19686254
0.19685601
0.19685477
0.19685851
0.19686684
0.19687952
0.19689634
0.19691721
0.19694204
0.19697078
0.19700331
0.19703958
0.19707946
0.19712288
0.19716978
0.19722016
0.19727413
0.19733206
0.19739465
0.19746334
0.19754072
0.19763145
0.19774365
0.19789119
0.19809746
0.19840137
0.19886688
0.19959807
0.20076274
0.20262951
0.20562625
0.21043384
0.21814002
0.23050278
0.25042642
0.28288605
0.33688972
0.4301405
0.60178949
0.95418048
1.8277899
4.8746169
25.776284
0.20290135
0.20293117
0.20286115
0.20276283
0.20265813
0.20255334
0.2024502
0.20234929
0.20225058
0.20215414
0.20205984