/*--------------------------------*- C++ -*----------------------------------*\
| =========                 |                                                 |
| \\      /  F ield         | OpenFOAM: The Open Source CFD Toolbox           |
|  \\    /   O peration     | Version:  v2006                                 |
|   \\  /    A nd           | Website:  www.openfoam.com                      |
|    \\/     M anipulation  |                                                 |
\*---------------------------------------------------------------------------*/
FoamFile
{
    version     2.0;
    format      ascii;
    class       surfaceScalarField;
    location    "10000";
    object      phi;
}
// * * * * * * * * * * * * * * * * * * * * * * * * * * * * * * * * * * * * * //

dimensions      [1 0 -1 0 0 0 0];
oriented        oriented;


internalField   nonuniform List<scalar> 
204841
(
6.5901735e-06
-0.00020803712
0.00020144694
1.1979127e-05
-0.00019928
0.00019389104
1.6373761e-05
-0.00019137961
0.00018698497
1.9939632e-05
-0.00018417579
0.00018060991
2.2810017e-05
-0.00017756935
0.00017469896
2.5093558e-05
-0.00017148851
0.00016920496
2.6879334e-05
-0.0001658762
0.00016409042
2.8240984e-05
-0.00016068537
0.00015932371
2.9239696e-05
-0.00015587583
0.00015487711
2.9926647e-05
-0.00015141309
0.00015072613
3.0344822e-05
-0.0001472674
0.00014684922
3.0530562e-05
-0.00014341203
0.00014322628
3.0514711e-05
-0.0001398234
0.00013983925
3.0323482e-05
-0.0001364827
0.00013667392
2.9979418e-05
-0.00013336892
0.00013371298
2.9501809e-05
-0.00013046749
0.0001309451
2.8907288e-05
-0.00012776339
0.00012835791
2.8210246e-05
-0.00012524336
0.0001259404
2.7423163e-05
-0.0001228955
0.00012368258
2.6556892e-05
-0.0001207094
0.00012157567
2.5620902e-05
-0.00011867532
0.0001196113
2.4623487e-05
-0.00011678467
0.00011778208
2.3571908e-05
-0.00011502953
0.0001160811
2.2472563e-05
-0.00011340285
0.00011450219
2.1331085e-05
-0.00011189828
0.00011303976
2.0152468e-05
-0.00011051001
0.00011168862
1.8941128e-05
-0.00010923277
0.00011044411
1.7701001e-05
-0.00010806194
0.00010930207
1.6435596e-05
-0.00010699323
0.00010825863
1.5148063e-05
-0.00010602285
0.00010731038
1.3841223e-05
-0.00010514743
0.00010645426
1.2517642e-05
-0.00010436393
0.00010568751
1.1179634e-05
-0.00010366972
0.00010500772
9.8293319e-06
-0.00010306242
0.00010441272
8.4686785e-06
-0.00010254005
0.0001039007
7.0994998e-06
-0.00010210089
0.00010347007
5.7234837e-06
-0.00010174349
0.0001031195
4.3422457e-06
-0.00010146669
0.00010284793
2.9573145e-06
-0.00010126961
0.00010265453
1.5701869e-06
-0.00010115161
0.00010253873
1.8231285e-07
-0.00010111231
0.00010250018
-1.2048436e-06
-0.00010115159
0.00010253875
-2.5898325e-06
-0.00010126958
0.00010265456
-3.9711558e-06
-0.00010146665
0.00010284797
-5.3472879e-06
-0.00010174343
0.00010311955
-6.7166098e-06
-0.00010210081
0.00010347013
-8.0774368e-06
-0.00010253996
0.00010390078
-9.4279385e-06
-0.00010306232
0.00010441282
-1.0766175e-05
-0.0001036696
0.00010500784
-1.209001e-05
-0.00010436381
0.00010568764
-1.3397136e-05
-0.00010514729
0.00010645441
-1.4684983e-05
-0.00010602269
0.00010731054
-1.5950737e-05
-0.00010699306
0.00010825881
-1.7191241e-05
-0.00010806176
0.00010930226
-1.8403e-05
-0.00010923257
0.00011044432
-1.9582068e-05
-0.00011050979
0.00011168886
-2.0724041e-05
-0.00011189804
0.00011304001
-2.1823918e-05
-0.00011340259
0.00011450246
-2.2876084e-05
-0.00011502924
0.0001160814
-2.387413e-05
-0.00011678435
0.0001177824
-2.4810812e-05
-0.00011867497
0.00011961165
-2.5677828e-05
-0.00012070902
0.00012157604
-2.6465725e-05
-0.00012289509
0.00012368298
-2.7163639e-05
-0.00012524291
0.00012594083
-2.7759103e-05
-0.0001277629
0.00012835836
-2.8237716e-05
-0.00013046697
0.00013094558
-2.8582865e-05
-0.00013336834
0.00013371349
-2.877525e-05
-0.00013648207
0.00013667446
-2.879235e-05
-0.0001398227
0.0001398398
-2.860794e-05
-0.00014341122
0.00014322682
-2.819119e-05
-0.00014726646
0.0001468497
-2.7505736e-05
-0.00015141191
0.00015072646
-2.6508584e-05
-0.00015587427
0.00015487711
-2.5148495e-05
-0.00016068309
0.000159323
-2.3364189e-05
-0.00016587257
0.00016408826
-2.1081841e-05
-0.00017148211
0.00016919976
-1.8212009e-05
-0.00017755721
0.00017468737
-1.4645446e-05
-0.00018415093
0.00018058437
-1.0247734e-05
-0.00019132584
0.00018692812
-4.8519307e-06
-0.00019915629
0.00019376049
-0.00020773174
0.00020112846
1.7513428e-06
6.6071171e-06
-0.00021464424
1.2008597e-05
-0.00020468148
1.6412875e-05
-0.00019578389
1.9986229e-05
-0.00018774914
2.2862182e-05
-0.0001804453
2.5149695e-05
-0.00017377603
2.6938113e-05
-0.00016766462
2.8301255e-05
-0.00016204851
2.9300495e-05
-0.00015687507
2.998715e-05
-0.00015209975
3.0404333e-05
-0.00014768458
3.0588476e-05
-0.00014359617
3.0570509e-05
-0.00013980544
3.0376716e-05
-0.00013628891
3.0029699e-05
-0.0001330219
2.9548799e-05
-0.0001299866
2.89507e-05
-0.0001271653
2.8249833e-05
-0.0001245425
2.7458714e-05
-0.00012210439
2.6588224e-05
-0.00011983892
2.5647852e-05
-0.00011773495
2.464591e-05
-0.00011578273
2.3589677e-05
-0.0001139733
2.2485563e-05
-0.00011229874
2.1339219e-05
-0.00011075194
2.0155644e-05
-0.00010932644
1.8939273e-05
-0.00010801641
1.7694048e-05
-0.00010681673
1.642349e-05
-0.00010572268
1.5130751e-05
-0.00010473011
1.3818667e-05
-0.00010383535
1.2489802e-05
-0.00010303507
1.1146484e-05
-0.0001023264
9.7908451e-06
-0.00010170678
8.4248437e-06
-0.00010117405
7.0503024e-06
-0.00010072635
5.6689187e-06
-0.00010036211
4.2823109e-06
-0.00010008008
2.8920093e-06
-9.9879311e-05
1.4995146e-06
-9.9759111e-05
1.0628042e-07
-9.9719079e-05
-1.28623e-06
-9.975908e-05
-2.6765681e-06
-9.9879245e-05
-4.0632336e-06
-0.00010007998
-5.444702e-06
-0.00010036196
-6.8193495e-06
-0.00010072617
-8.1854854e-06
-0.00010117383
-9.5412799e-06
-0.00010170652
-1.0884784e-05
-0.0001023261
-1.2213856e-05
-0.00010303473
-1.3526179e-05
-0.00010383497
-1.4819178e-05
-0.00010472969
-1.6090028e-05
-0.00010572222
-1.7335565e-05
-0.00010681622
-1.8552282e-05
-0.00010801586
-1.9736227e-05
-0.00010932584
-2.088298e-05
-0.00011075129
-2.1987532e-05
-0.00011229803
-2.304425e-05
-0.00011397252
-2.4046714e-05
-0.00011578189
-2.4987659e-05
-0.00011773403
-2.5858762e-05
-0.00011983792
-2.6650544e-05
-0.00012210331
-2.7352114e-05
-0.00012454134
-2.7950973e-05
-0.00012716405
-2.8432681e-05
-0.00012998526
-2.8780579e-05
-0.00013302045
-2.8975315e-05
-0.00013628733
-2.899431e-05
-0.00013980371
-2.8811264e-05
-0.00014359427
-2.8395264e-05
-0.00014768246
-2.7709849e-05
-0.00015209733
-2.6711908e-05
-0.00015687222
-2.5350057e-05
-0.00016204494
-2.3562855e-05
-0.00016765978
-2.1276272e-05
-0.00017376869
-1.8400622e-05
-0.00018043286
-1.4826353e-05
-0.0001877252
-1.0418692e-05
-0.00019573351
-5.0102168e-06
-0.00020456477
-0.00021435092
1.608952e-06
6.6226006e-06
-0.00022126684
1.2036296e-05
-0.00021009518
1.6450139e-05
-0.00020019774
2.0030753e-05
-0.00019132976
2.2912105e-05
-0.00018332666
2.5203441e-05
-0.00017606736
2.699435e-05
-0.00016945553
2.8358883e-05
-0.00016341305
2.9358585e-05
-0.00015787477
3.0044916e-05
-0.00015278608
3.0461103e-05
-0.00014810077
3.0643679e-05
-0.00014377875
3.062366e-05
-0.00013978542
3.0427387e-05
-0.00013609264
3.0077519e-05
-0.00013267204
2.9593443e-05
-0.00012950252
2.8991879e-05
-0.00012656373
2.8287301e-05
-0.00012383792
2.749226e-05
-0.00012130935
2.6617675e-05
-0.00011896433
2.5673063e-05
-0.00011679034
2.4666756e-05
-0.00011477642
2.3606044e-05
-0.00011291259
2.2497358e-05
-0.00011119005
2.1346349e-05
-0.00010960094
2.0158034e-05
-0.00010813812
1.893685e-05
-0.00010679523
1.768675e-05
-0.00010556663
1.6411258e-05
-0.00010444719
1.5113539e-05
-0.00010343239
1.3796432e-05
-0.00010251824
1.2462508e-05
-0.00010170115
1.11141e-05
-0.000100978
9.7533438e-06
-0.00010034603
8.3822017e-06
-9.980291e-05
7.0025042e-06
-9.9346648e-05
5.6159525e-06
-9.8975556e-05
4.2241749e-06
-9.8688303e-05
2.8287034e-06
-9.8483843e-05
1.4310459e-06
-9.836145e-05
3.2643829e-08
-9.8320682e-05
-1.3650339e-06
-9.8361399e-05
-2.7605449e-06
-9.8483739e-05
-4.1523758e-06
-9.8688146e-05
-5.5389961e-06
-9.8975346e-05
-6.9187715e-06
-9.9346387e-05
-8.290009e-06
-9.9802595e-05
-9.6508717e-06
-0.00010034566
-1.0999412e-05
-0.00010097757
-1.2333482e-05
-0.00010170066
-1.3650758e-05
-0.0001025177
-1.4948654e-05
-0.0001034318
-1.6224348e-05
-0.00010444653
-1.7474663e-05
-0.0001055659
-1.8696096e-05
-0.00010679443
-1.9884678e-05
-0.00010813726
-2.1035994e-05
-0.00010959999
-2.2145009e-05
-0.00011118901
-2.3206089e-05
-0.00011291145
-2.4212782e-05
-0.00011477519
-2.5157814e-05
-0.00011678901
-2.6032829e-05
-0.0001189629
-2.6828338e-05
-0.00012130781
-2.7533404e-05
-0.00012383627
-2.8135511e-05
-0.00012656195
-2.8620168e-05
-0.0001295006
-2.8970685e-05
-0.00013266994
-2.9167649e-05
-0.00013609036
-2.9188432e-05
-0.00013978294
-2.9006656e-05
-0.00014377604
-2.8591338e-05
-0.00014809779
-2.7905906e-05
-0.00015278276
-2.690715e-05
-0.00015787098
-2.5543536e-05
-0.00016340855
-2.3753472e-05
-0.00016944985
-2.146271e-05
-0.00017605945
-1.8581361e-05
-0.00018331422
-1.4999525e-05
-0.00019130703
-1.058215e-05
-0.00020015089
-5.1612371e-06
-0.00020998568
-0.00022098565
1.473487e-06
6.6383651e-06
-0.00022790521
1.2064529e-05
-0.00021552135
1.6488185e-05
-0.0002046214
2.0076347e-05
-0.00019491792
2.296332e-05
-0.00018621363
2.5258694e-05
-0.00017836274
2.7052312e-05
-0.00017124915
2.8418444e-05
-0.00016477918
2.9418802e-05
-0.00015887513
3.010499e-05
-0.00015347227
3.0520357e-05
-0.00014851614
3.0701533e-05
-0.00014395993
3.0679616e-05
-0.00013976351
3.0481021e-05
-0.00013589405
3.0128469e-05
-0.00013231949
2.9641388e-05
-0.00012901544
2.903654e-05
-0.00012595889
2.832842e-05
-0.0001231298
2.7529614e-05
-0.00012051055
2.6651061e-05
-0.00011808578
2.5702318e-05
-0.0001158416
2.4691743e-05
-0.00011376584
2.3626652e-05
-0.0001118475
2.2513488e-05
-0.00011007689
2.1357918e-05
-0.00010844537
2.0164968e-05
-0.00010694518
1.8939084e-05
-0.00010556935
1.7684226e-05
-0.00010431177
1.6403926e-05
-0.00010316689
1.5101353e-05
-0.00010212982
1.377935e-05
-0.00010119624
1.2440496e-05
-0.0001003623
1.1087126e-05
-9.9624631e-05
9.7213837e-06
-9.8980288e-05
8.3452313e-06
-9.8426762e-05
6.9605008e-06
-9.7961919e-05
5.568898e-06
-9.7583958e-05
4.172049e-06
-9.7291454e-05
2.7714964e-06
-9.7083296e-05
1.3687498e-06
-9.6958703e-05
-3.4735393e-08
-9.6917202e-05
-1.4374927e-06
-9.6958641e-05
-2.838066e-06
-9.7083172e-05
-4.2349403e-06
-9.7291271e-05
-5.6265737e-06
-9.7583719e-05
-7.0113353e-06
-9.7961625e-05
-8.3875272e-06
-9.842641e-05
-9.7533112e-06
-9.8979874e-05
-1.1106738e-05
-9.9624149e-05
-1.2445655e-05
-0.00010036174
-1.3767742e-05
-0.00010119562
-1.5070411e-05
-0.00010212913
-1.6350837e-05
-0.00010316611
-1.760584e-05
-0.0001043109
-1.8831901e-05
-0.00010556838
-2.0025041e-05
-0.00010694412
-2.1180827e-05
-0.00010844421
-2.2294213e-05
-0.00011007563
-2.3359542e-05
-0.00011184613
-2.4370354e-05
-0.00011376438
-2.531935e-05
-0.00011584002
-2.6198162e-05
-0.00011808409
-2.6997262e-05
-0.00012050872
-2.7705703e-05
-0.00012312783
-2.8310922e-05
-0.00012595674
-2.8798403e-05
-0.00012901312
-2.91514e-05
-0.00013231696
-2.9350462e-05
-0.0001358913
-2.9372889e-05
-0.00013976052
-2.9192247e-05
-0.00014395668
-2.8777456e-05
-0.00014851259
-2.8091865e-05
-0.00015346835
-2.709213e-05
-0.00015887073
-2.5726595e-05
-0.00016477409
-2.3933493e-05
-0.00017124296
-2.1638393e-05
-0.00017835455
-1.8751138e-05
-0.00018620148
-1.5161569e-05
-0.0001948966
-1.0734239e-05
-0.00020457823
-5.3007178e-06
-0.0002154192
-0.00022763615
1.3497759e-06
6.6540866e-06
-0.0002345593
1.2092696e-05
-0.00022095996
1.652622e-05
-0.00020905492
2.0121978e-05
-0.00019851369
2.3014684e-05
-0.00018910635
2.5314187e-05
-0.00018066225
2.7110637e-05
-0.00017304561
2.8478495e-05
-0.00016614705
2.9479652e-05
-0.0001598763
3.0165846e-05
-0.00015415847
3.0580541e-05
-0.00014893084
3.076046e-05
-0.00014413986
3.0736785e-05
-0.00013973983
3.0536001e-05
-0.00013569327
3.0180896e-05
-0.00013196439
2.9690952e-05
-0.00012852551
2.9082975e-05
-0.00012535092
2.8371489e-05
-0.00012241832
2.7569104e-05
-0.00011970817
2.6686774e-05
-0.00011720346
2.5734079e-05
-0.00011488891
2.4719391e-05
-0.00011275116
2.3650061e-05
-0.00011077817
2.2532551e-05
-0.00010895938
2.1372551e-05
-0.00010728538
2.0175096e-05
-0.00010574772
1.8944644e-05
-0.0001043389
1.7685165e-05
-0.00010305229
1.6400197e-05
-0.00010188193
1.5092913e-05
-0.00010082254
1.3766167e-05
-9.98695e-05
1.2422537e-05
-9.9018669e-05
1.1064363e-05
-9.8266461e-05
9.6937915e-06
-9.760972e-05
8.3127914e-06
-9.7045766e-05
6.923192e-06
-9.6572324e-05
5.5267048e-06
-9.6187475e-05
4.1249503e-06
-9.5889704e-05
2.7194787e-06
-9.5677828e-05
1.3117921e-06
-9.5551022e-05
-9.6629356e-08
-9.5508784e-05
-1.5043211e-06
-9.5550954e-05
-2.9098015e-06
-9.5677694e-05
-4.3115677e-06
-9.5889509e-05
-5.7080712e-06
-9.6187218e-05
-7.0976891e-06
-9.6572009e-05
-8.4787134e-06
-9.7045388e-05
-9.8493133e-06
-9.7609276e-05
-1.1207523e-05
-9.8265943e-05
-1.2551197e-05
-9.9018071e-05
-1.3878003e-05
-9.9868814e-05
-1.5185359e-05
-0.00010082177
-1.6470418e-05
-0.00010188105
-1.7729997e-05
-0.00010305132
-1.8960559e-05
-0.00010433782
-2.0158125e-05
-0.00010574655
-2.1318239e-05
-0.0001072841
-2.2435855e-05
-0.00010895801
-2.3505295e-05
-0.00011077669
-2.4520093e-05
-0.00011274958
-2.5472921e-05
-0.0001148872
-2.63554e-05
-0.00011720161
-2.7157971e-05
-0.00011970615
-2.7869662e-05
-0.00012241614
-2.8477872e-05
-0.00012534853
-2.8968056e-05
-0.00012852293
-2.9323419e-05
-0.0001319616
-2.9524465e-05
-0.00013569025
-2.954843e-05
-0.00013973656
-2.9368815e-05
-0.0001441363
-2.8954455e-05
-0.00014892695
-2.8268609e-05
-0.00015415419
-2.7267814e-05
-0.00015987153
-2.5900286e-05
-0.00016614161
-2.4104085e-05
-0.00017303917
-2.1804592e-05
-0.00018065404
-1.8911407e-05
-0.00018909467
-1.5314085e-05
-0.00019849392
-1.0876811e-05
-0.00020901551
-5.4307243e-06
-0.00022086528
-0.00023430242
1.2355368e-06
6.6698341e-06
-0.00024122912
1.2120987e-05
-0.0002264111
1.6564508e-05
-0.00021349844
2.0167991e-05
-0.00020211716
2.3066525e-05
-0.00019200487
2.5370316e-05
-0.00018296603
2.7169723e-05
-0.00017484501
2.8539449e-05
-0.00016751677
2.9541538e-05
-0.00016087839
3.0227886e-05
-0.00015484482
3.0642049e-05
-0.00014934501
3.0820862e-05
-0.00014431867
3.0795569e-05
-0.00013971455
3.0592737e-05
-0.00013549044
3.0235193e-05
-0.00013160685
2.9742492e-05
-0.0001280328
2.9131475e-05
-0.0001247399
2.8416728e-05
-0.00012170358
2.7610881e-05
-0.00011890232
2.6724917e-05
-0.00011631749
2.5768418e-05
-0.00011393241
2.4749777e-05
-0.00011173252
2.3676348e-05
-0.00010970475
2.2554618e-05
-0.00010783765
2.1390291e-05
-0.00010612105
2.0188428e-05
-0.00010454586
1.8953497e-05
-0.00010310397
1.7689485e-05
-0.00010178828
1.6399933e-05
-0.00010059238
1.5088031e-05
-9.9510641e-05
1.3756623e-05
-9.8538097e-05
1.2408309e-05
-9.7670355e-05
1.1045422e-05
-9.690358e-05
9.6701219e-06
-9.623442e-05
8.2843724e-06
-9.5660021e-05
6.8900127e-06
-9.5177966e-05
5.4887537e-06
-9.478622e-05
4.0822211e-06
-9.4483175e-05
2.6719657e-06
-9.4267576e-05
1.2594948e-06
-9.4138554e-05
-1.5371041e-07
-9.4095582e-05
-1.5661811e-06
-9.4138486e-05
-2.976437e-06
-9.4267441e-05
-4.382977e-06
-9.4482972e-05
-5.7842501e-06
-9.4785948e-05
-7.1786339e-06
-9.5177628e-05
-8.5644127e-06
-9.5659612e-05
-9.9397514e-06
-9.6233939e-05
-1.1302677e-05
-9.690302e-05
-1.2651036e-05
-9.7669714e-05
-1.3982489e-05
-9.8537364e-05
-1.5294441e-05
-9.9509818e-05
-1.6584036e-05
-0.00010059146
-1.7848088e-05
-0.00010178727
-1.9083044e-05
-0.00010310287
-2.0284929e-05
-0.00010454467
-2.1449268e-05
-0.00010611976
-2.2571015e-05
-0.00010783627
-2.3644466e-05
-0.00010970324
-2.4663152e-05
-0.00011173089
-2.5619714e-05
-0.00011393064
-2.6505762e-05
-0.00011631556
-2.73117e-05
-0.00011890021
-2.8026544e-05
-0.00012170129
-2.8637647e-05
-0.00012473743
-2.9130438e-05
-0.00012803014
-2.9488068e-05
-0.00013160397
-2.9691003e-05
-0.00013548732
-2.9716407e-05
-0.00013971116
-2.9537728e-05
-0.00014431498
-2.9123707e-05
-0.00014934097
-2.8437517e-05
-0.00015484038
-2.7435572e-05
-0.00016087347
-2.6065966e-05
-0.00016751122
-2.4266584e-05
-0.00017483855
-2.1962622e-05
-0.000182958
-1.9063431e-05
-0.00019199387
-1.5458294e-05
-0.00020209906
-1.1011014e-05
-0.00021346279
-5.5523212e-06
-0.00022632397
-0.0002409845
1.1297602e-06
6.685527e-06
-0.00024791467
1.2149226e-05
-0.00023187483
1.6602793e-05
-0.00021795202
2.0214025e-05
-0.00020572841
2.3118489e-05
-0.00019490935
2.5426603e-05
-0.00018527416
2.7229067e-05
-0.00017664749
2.8600746e-05
-0.00016888846
2.9603882e-05
-0.00016188153
3.029048e-05
-0.00015553143
3.0704239e-05
-0.00014975877
3.0882063e-05
-0.0001444965
3.0855296e-05
-0.00013968778
3.0650546e-05
-0.0001352857
3.0290717e-05
-0.00013124702
2.9795383e-05
-0.00012753748
2.9181452e-05
-0.00012412598
2.8463531e-05
-0.00012098566
2.765431e-05
-0.00011809311
2.6764796e-05
-0.00011542799
2.5804606e-05
-0.00011297223
2.4782134e-05
-0.00011071006
2.3704755e-05
-0.00010862737
2.2578948e-05
-0.00010671185
2.1410441e-05
-0.00010495255
2.0204291e-05
-0.00010333972
1.8964997e-05
-0.00010186468
1.7696544e-05
-0.00010051983
1.6402504e-05
-9.9298342e-05
1.508606e-05
-9.8194202e-05
1.3750084e-05
-9.7202125e-05
1.2397163e-05
-9.631744e-05
1.1029651e-05
-9.553607e-05
9.6496966e-06
-9.4854471e-05
8.2592816e-06
-9.4269609e-05
6.8602418e-06
-9.3778932e-05
5.4543018e-06
-9.3380283e-05
4.043084e-06
-9.3071963e-05
2.6281484e-06
-9.2852644e-05
1.2109975e-06
-9.2721409e-05
-2.0688548e-07
-9.2677702e-05
-1.6240356e-06
-9.2721342e-05
-3.0389733e-06
-9.2852506e-05
-4.4501997e-06
-9.3071751e-05
-5.8561551e-06
-9.3379995e-05
-7.2552169e-06
-9.3778571e-05
-8.6456582e-06
-9.4269173e-05
-1.002564e-05
-9.4853962e-05
-1.1393179e-05
-9.5535483e-05
-1.2746121e-05
-9.6316776e-05
-1.4082107e-05
-9.720138e-05
-1.5398549e-05
-9.8193381e-05
-1.6692572e-05
-9.9297438e-05
-1.7960995e-05
-0.00010051885
-1.9200252e-05
-0.00010186361
-2.0406362e-05
-0.00010333856
-2.1574836e-05
-0.00010495129
-2.2700622e-05
-0.00010671048
-2.3777995e-05
-0.00010862587
-2.4800471e-05
-0.00011070842
-2.5760673e-05
-0.00011297044
-2.6650191e-05
-0.00011542605
-2.7459405e-05
-0.000118091
-2.8177304e-05
-0.0001209834
-2.8791209e-05
-0.00012412353
-2.9286513e-05
-0.00012753484
-2.9646323e-05
-0.00013124416
-2.9851059e-05
-0.00013528259
-2.9877822e-05
-0.0001396844
-2.9699993e-05
-0.00014449281
-2.9286232e-05
-0.00014975474
-2.8599618e-05
-0.000155527
-2.7596453e-05
-0.00016187664
-2.6224694e-05
-0.00016888298
-2.4422066e-05
-0.00017664118
-2.2113574e-05
-0.00018526649
-1.9208329e-05
-0.00019489911
-1.5595331e-05
-0.00020571206
-1.113801e-05
-0.00021792011
-5.6666911e-06
-0.00023179529
-0.00024768242
1.0312239e-06
6.7012054e-06
-0.0002546159
1.2177553e-05
-0.00023735119
1.6641242e-05
-0.00022241573
2.0260368e-05
-0.00020934755
2.317082e-05
-0.00019781982
2.5483404e-05
-0.00018758676
2.7289023e-05
-0.00017845312
2.8662774e-05
-0.00017026221
2.9667049e-05
-0.00016288581
3.0354007e-05
-0.00015621838
3.0767449e-05
-0.00015017222
3.0944393e-05
-0.00014467344
3.0916243e-05
-0.00013965964
3.0709695e-05
-0.00013507914
3.0347688e-05
-0.00013088502
2.9849861e-05
-0.00012703965
2.9233137e-05
-0.00012350926
2.8512174e-05
-0.0001202647
2.7699673e-05
-0.00011728061
2.6806695e-05
-0.00011453501
2.5842875e-05
-0.00011200841
2.4816653e-05
-0.00010968383
2.3735404e-05
-0.00010754613
2.2605636e-05
-0.00010558208
2.1433061e-05
-0.00010377998
2.0222763e-05
-0.00010212942
1.8979226e-05
-0.00010062114
1.770646e-05
-9.9247065e-05
1.640803e-05
-9.7999914e-05
1.5087148e-05
-9.6873316e-05
1.3746678e-05
-9.5861658e-05
1.2389234e-05
-9.4959992e-05
1.1017164e-05
-9.4164002e-05
9.6326336e-06
-9.3469938e-05
8.2376179e-06
-9.2874596e-05
6.8339713e-06
-9.2375282e-05
5.4234081e-06
-9.1969723e-05
4.0075698e-06
-9.1656121e-05
2.5880057e-06
-9.1433083e-05
1.166238e-06
-9.1299639e-05
-2.5626927e-07
-9.1255197e-05
-1.6780372e-06
-9.1299572e-05
-3.0976027e-06
-9.1432944e-05
-4.5134444e-06
-9.1655907e-05
-5.9240087e-06
-9.1969433e-05
-7.3276577e-06
-9.2374921e-05
-8.7226689e-06
-9.2874164e-05
-1.0107192e-05
-9.3469439e-05
-1.1479244e-05
-9.4163433e-05
-1.2836663e-05
-9.4959358e-05
-1.417709e-05
-9.5860954e-05
-1.5497925e-05
-9.6872547e-05
-1.6796295e-05
-9.7999069e-05
-1.8069004e-05
-9.9246144e-05
-1.9312484e-05
-0.00010062013
-2.0522738e-05
-0.00010212831
-2.169527e-05
-0.00010377876
-2.2825008e-05
-0.00010558075
-2.390622e-05
-0.00010754466
-2.4932405e-05
-0.00010968224
-2.5896165e-05
-0.00011200668
-2.6789073e-05
-0.00011453314
-2.7601485e-05
-0.00011727859
-2.8322363e-05
-0.00012026252
-2.8938996e-05
-0.0001235069
-2.9436741e-05
-0.00012703709
-2.9798661e-05
-0.00013088224
-3.0005123e-05
-0.00013507612
-3.0033176e-05
-0.00013965635
-2.9856126e-05
-0.00014466986
-2.9442558e-05
-0.0001501683
-2.8755456e-05
-0.0001562141
-2.7751007e-05
-0.00016288109
-2.6377035e-05
-0.00017025695
-2.4571106e-05
-0.00017844711
-2.2258032e-05
-0.00018757957
-1.9346685e-05
-0.00019781046
-1.5725787e-05
-0.00020933295
-1.1258395e-05
-0.00022238751
-5.77443e-06
-0.00023727926
-0.00025439618
9.3933047e-07
6.7168856e-06
-0.00026133276
1.2205982e-05
-0.00024284027
1.6679921e-05
-0.00022688966
2.0306995e-05
-0.00021297462
2.3223574e-05
-0.00020073639
2.5540691e-05
-0.00018990387
2.7349568e-05
-0.00018026199
2.8725476e-05
-0.00017163812
2.9730986e-05
-0.00016389132
3.0418383e-05
-0.00015690578
3.0831593e-05
-0.00015058543
3.1007713e-05
-0.00014484957
3.0978253e-05
-0.00013963018
3.0769958e-05
-0.00013487085
3.0405844e-05
-0.00013052091
2.9905583e-05
-0.00012653939
2.9286156e-05
-0.00012288983
2.8562235e-05
-0.00011954078
2.7746561e-05
-0.00011646494
2.6850203e-05
-0.00011363865
2.5882832e-05
-0.00011104104
2.4852903e-05
-0.00010865391
2.3767835e-05
-0.00010646106
2.2634139e-05
-0.00010444839
2.1457565e-05
-0.0001026034
2.0243179e-05
-0.00010091503
1.8995495e-05
-9.9373462e-05
1.7718506e-05
-9.7970082e-05
1.6415799e-05
-9.6697208e-05
1.5090568e-05
-9.5548091e-05
1.3745709e-05
-9.45168e-05
1.2383818e-05
-9.3598106e-05
1.1007272e-05
-9.2787458e-05
9.6182286e-06
-9.2080898e-05
8.2186871e-06
-9.1475055e-05
6.8104852e-06
-9.0967083e-05
5.3953595e-06
-9.0554598e-05
3.9749426e-06
-9.0235707e-05
2.5508015e-06
-9.0008942e-05
1.1244445e-06
-8.9873284e-05
-3.0264554e-07
-8.9828108e-05
-1.7290015e-06
-8.9873218e-05
-3.153135e-06
-9.0008811e-05
-4.5735355e-06
-9.0235509e-05
-5.9886363e-06
-9.0554333e-05
-7.3968029e-06
-9.0966757e-05
-8.7963019e-06
-9.1474666e-05
-1.0185292e-05
-9.2080451e-05
-1.1561778e-05
-9.2786948e-05
-1.2923601e-05
-9.3597536e-05
-1.4268392e-05
-9.4516165e-05
-1.5593551e-05
-9.554739e-05
-1.6896192e-05
-9.6696429e-05
-1.8173115e-05
-9.7969222e-05
-1.9420741e-05
-9.9372507e-05
-2.0635067e-05
-0.00010091398
-2.181158e-05
-0.00010260224
-2.2945201e-05
-0.00010444713
-2.4030183e-05
-0.00010645968
-2.5060005e-05
-0.00010865242
-2.602726e-05
-0.00011103942
-2.6923492e-05
-0.00011363691
-2.7739042e-05
-0.00011646304
-2.8462835e-05
-0.00011953873
-2.9082135e-05
-0.0001228876
-2.9582256e-05
-0.00012653697
-2.9946224e-05
-0.00013051828
-3.0154348e-05
-0.000134868
-3.0183626e-05
-0.00013962707
-3.0007294e-05
-0.00014484619
-2.9593859e-05
-0.00015058174
-2.8906204e-05
-0.00015690175
-2.7900415e-05
-0.00016388688
-2.6524173e-05
-0.00017163319
-2.4714891e-05
-0.0001802564
-2.2397185e-05
-0.00018989727
-1.9479694e-05
-0.00020072796
-1.5850855e-05
-0.00021296179
-1.1373363e-05
-0.000226865
-5.8767257e-06
-0.00024277589
-0.0002611258
8.5288973e-07
6.7324654e-06
-0.00026806523
1.2234374e-05
-0.00024834218
1.6718564e-05
-0.00023137384
2.0353665e-05
-0.00021660972
2.3276387e-05
-0.00020365911
2.5598118e-05
-0.0001922256
2.7410311e-05
-0.00018207418
2.8788453e-05
-0.00017301626
2.9795275e-05
-0.00016489814
3.0483195e-05
-0.0001575937
3.0896248e-05
-0.00015099848
3.1071632e-05
-0.00014502495
3.1040926e-05
-0.00013959947
3.0830954e-05
-0.00013466088
3.0464787e-05
-0.00013015474
2.9962155e-05
-0.00012603676
2.9340073e-05
-0.00012226775
2.861326e-05
-0.00011881396
2.7794481e-05
-0.00011564616
2.6894831e-05
-0.000112739
2.5923995e-05
-0.0001100702
2.4890451e-05
-0.00010762036
2.3801627e-05
-0.00010537224
2.2664067e-05
-0.00010331083
2.1483527e-05
-0.00010142286
2.0265107e-05
-9.9696614e-05
1.9013317e-05
-9.8121673e-05
1.7732172e-05
-9.6688937e-05
1.6425252e-05
-9.5390289e-05
1.5095769e-05
-9.4218608e-05
1.3746604e-05
-9.3167635e-05
1.2380372e-05
-9.2231873e-05
1.0999443e-05
-9.1406528e-05
9.6059859e-06
-9.0687442e-05
8.2019983e-06
-9.0071067e-05
6.7893298e-06
-8.9554415e-05
5.3697166e-06
-8.9134984e-05
3.9447963e-06
-8.8810786e-05
2.5161376e-06
-8.8580283e-05
1.0852572e-06
-8.8442403e-05
-3.4635836e-07
-8.8396493e-05
-1.7772301e-06
-8.8442346e-05
-3.2058715e-06
-8.858017e-05
-4.6307621e-06
-8.8810618e-05
-6.0503347e-06
-8.9134761e-05
-7.4629528e-06
-8.9554139e-05
-8.8668839e-06
-9.0070735e-05
-1.0260278e-05
-9.0687056e-05
-1.1641143e-05
-9.1406083e-05
-1.3007309e-05
-9.223137e-05
-1.4356409e-05
-9.3167065e-05
-1.5685827e-05
-9.4217971e-05
-1.6992682e-05
-9.5389574e-05
-1.8273759e-05
-9.6688144e-05
-1.9525474e-05
-9.8120793e-05
-2.0743808e-05
-9.9695648e-05
-2.192425e-05
-0.0001014218
-2.3061696e-05
-0.00010330968
-2.4150395e-05
-0.00010537098
-2.5183803e-05
-0.000107619
-2.61545e-05
-0.00011006873
-2.7054005e-05
-0.0001127374
-2.7872638e-05
-0.00011564441
-2.859929e-05
-0.00011881207
-2.92212e-05
-0.00012226569
-2.9723637e-05
-0.00012603453
-3.0089593e-05
-0.00013015232
-3.0299322e-05
-0.00013465826
-3.0329769e-05
-0.00013959663
-3.0154096e-05
-0.00014502186
-2.974074e-05
-0.0001509951
-2.9052482e-05
-0.00015759001
-2.8045301e-05
-0.00016489407
-2.6666741e-05
-0.00017301174
-2.4854064e-05
-0.00018206908
-2.2531682e-05
-0.00019221965
-1.9608009e-05
-0.00020365164
-1.5971196e-05
-0.0002165986
-1.1483578e-05
-0.00023135263
-5.9742497e-06
-0.00024828521
-0.00026787129
7.7122874e-07
6.7479977e-06
-0.00027481322
1.2262773e-05
-0.00025385695
1.6757292e-05
-0.00023586836
2.0400461e-05
-0.00022025288
2.3329391e-05
-0.00020658804
2.5655793e-05
-0.00019455199
2.7471368e-05
-0.00018388975
2.8851811e-05
-0.0001743967
2.9860009e-05
-0.00016590634
3.0548528e-05
-0.00015828221
3.0961498e-05
-0.00015141144
3.1136218e-05
-0.00014519966
3.1104339e-05
-0.00013956759
3.0892757e-05
-0.00013444929
3.0524595e-05
-0.00012978657
3.0019641e-05
-0.00012553179
2.9394948e-05
-0.00012164305
2.8665281e-05
-0.00011808429
2.7843433e-05
-0.00011482431
2.6940535e-05
-0.0001118361
2.5966287e-05
-0.00010909595
2.4929191e-05
-0.00010658326
2.3836681e-05
-0.00010427972
2.2695319e-05
-0.00010216946
2.1510871e-05
-0.00010023841
2.0288456e-05
-9.8474192e-05
1.9032596e-05
-9.6865811e-05
1.7747324e-05
-9.5403658e-05
1.6436225e-05
-9.4079187e-05
1.5102523e-05
-9.2884899e-05
1.3749099e-05
-9.1814209e-05
1.2378577e-05
-9.0861346e-05
1.0993324e-05
-9.0021272e-05
9.595519e-06
-8.9289631e-05
8.1871538e-06
-8.86627e-05
6.7700916e-06
-8.8137347e-05
5.3460599e-06
-8.771095e-05
3.9167106e-06
-8.7381431e-05
2.4836071e-06
-8.7147178e-05
1.0482801e-06
-8.7007071e-05
-3.8778789e-07
-8.6960422e-05
-1.8231041e-06
-8.7007024e-05
-3.256187e-06
-8.7147085e-05
-4.6855073e-06
-8.7381292e-05
-6.1095026e-06
-8.7710764e-05
-7.5265223e-06
-8.8137113e-05
-8.93484e-06
-8.8662416e-05
-1.0332594e-05
-8.9289297e-05
-1.1717793e-05
-9.0020883e-05
-1.3088256e-05
-9.0860901e-05
-1.4441618e-05
-9.1813702e-05
-1.5775254e-05
-9.288433e-05
-1.7086278e-05
-9.4078549e-05
-1.8371464e-05
-9.5402953e-05
-1.9627225e-05
-9.6865031e-05
-2.084953e-05
-9.8473338e-05
-2.2033855e-05
-0.00010023748
-2.3175085e-05
-0.00010216844
-2.4267454e-05
-0.00010427861
-2.5304402e-05
-0.00010658205
-2.6278491e-05
-0.00010909464
-2.7181218e-05
-0.00011183467
-2.8002877e-05
-0.00011482275
-2.8732336e-05
-0.00011808261
-2.93568e-05
-0.00012164123
-2.9861503e-05
-0.00012552982
-3.0229393e-05
-0.00012978443
-3.0440679e-05
-0.00013444697
-3.0472244e-05
-0.00013956506
-3.0297187e-05
-0.00014519691
-2.988386e-05
-0.00015140843
-2.9194953e-05
-0.00015827891
-2.8186335e-05
-0.00016590269
-2.6805419e-05
-0.00017439265
-2.49893e-05
-0.0001838852
-2.2662207e-05
-0.00019454673
-1.9732315e-05
-0.00020658153
-1.6087499e-05
-0.00022024341
-1.1589727e-05
-0.0002358504
-6.0676878e-06
-0.00025380725
-0.00027463264
6.9366087e-07
6.7634504e-06
-0.00028157667
1.2291153e-05
-0.00025938465
1.679604e-05
-0.00024037324
2.0447314e-05
-0.00022390414
2.3382492e-05
-0.00020952321
2.5713607e-05
-0.0001968831
2.7532612e-05
-0.00018570875
2.8915406e-05
-0.00017577948
2.9925042e-05
-0.00016691596
3.0614211e-05
-0.00015897137
3.1027165e-05
-0.00015182439
3.1201288e-05
-0.00014537377
3.1168314e-05
-0.00013953461
3.0955197e-05
-0.00013423616
3.0585119e-05
-0.00012941649
3.0077913e-05
-0.00012502458
2.9450682e-05
-0.00012101581
2.871822e-05
-0.00011735182
2.789336e-05
-0.00011399944
2.6987258e-05
-0.00011092998
2.6009645e-05
-0.00010811833
2.4969041e-05
-0.00010554264
2.3872899e-05
-0.00010318358
2.2727796e-05
-0.00010102435
2.1539505e-05
-9.9050116e-05
2.0313159e-05
-9.7247835e-05
1.9053285e-05
-9.5605932e-05
1.7763933e-05
-9.4114296e-05
1.6448694e-05
-9.2763942e-05
1.5110804e-05
-9.1546999e-05
1.3753153e-05
-9.0456553e-05
1.2378372e-05
-8.9486554e-05
1.0988827e-05
-8.8631723e-05
9.5867097e-06
-8.7887504e-05
8.1740075e-06
-8.7249994e-05
6.752591e-06
-8.6715921e-05
5.3241899e-06
-8.6282545e-05
3.890461e-06
-8.5947693e-05
2.4529701e-06
-8.5709683e-05
1.0132498e-06
-8.5567341e-05
-4.27213e-07
-8.5519956e-05
-1.8669259e-06
-8.5567302e-05
-3.304403e-06
-8.5709605e-05
-4.7381109e-06
-8.5947575e-05
-6.1664863e-06
-8.6282386e-05
-7.5878706e-06
-8.671572e-05
-9.0005366e-06
-8.7249748e-05
-1.0402611e-05
-8.7887213e-05
-1.1792108e-05
-8.8631384e-05
-1.3166834e-05
-8.9486166e-05
-1.4524423e-05
-9.0456112e-05
-1.5862239e-05
-9.1546504e-05
-1.7177397e-05
-9.276339e-05
-1.8466654e-05
-9.4113687e-05
-1.9726426e-05
-9.5605259e-05
-2.0952656e-05
-9.7247099e-05
-2.2140824e-05
-9.904931e-05
-2.3285789e-05
-0.00010102347
-2.4381785e-05
-0.00010318262
-2.5422222e-05
-0.0001055416
-2.6399659e-05
-0.0001081172
-2.7305557e-05
-0.00011092876
-2.8130201e-05
-0.00011399811
-2.8862419e-05
-0.00011735038
-2.9489397e-05
-0.00012101425
-2.9996319e-05