/*--------------------------------*- C++ -*----------------------------------*\
| =========                 |                                                 |
| \\      /  F ield         | OpenFOAM: The Open Source CFD Toolbox           |
|  \\    /   O peration     | Version:  v2006                                 |
|   \\  /    A nd           | Website:  www.openfoam.com                      |
|    \\/     M anipulation  |                                                 |
\*---------------------------------------------------------------------------*/
FoamFile
{
    version     2.0;
    format      ascii;
    class       volVectorField;
    location    "10000";
    object      U;
}
// * * * * * * * * * * * * * * * * * * * * * * * * * * * * * * * * * * * * * //

dimensions      [0 1 -1 0 0 0 0];


internalField   nonuniform List<vector> 
102907
(
(0.094536077 7.666696e-07 5.0303348e-19)
(0.094453302 -3.5546253e-07 -5.3689235e-19)
(0.094419789 6.9406112e-07 -1.683001e-20)
(0.094405053 4.0476538e-07 -1.0777444e-18)
(0.094398228 8.9982017e-07 1.0752363e-18)
(0.094394916 9.5190632e-07 2.143061e-18)
(0.094393217 1.238446e-06 -4.2849147e-18)
(0.094392291 1.3756961e-06 2.1389389e-18)
(0.094391746 1.6241789e-06 8.3798253e-21)
(0.094391398 1.7668243e-06 0)
(0.094391154 1.999669e-06 0)
(0.094390968 2.1317519e-06 -2.1860061e-18)
(0.094390814 2.3197864e-06 2.2119053e-18)
(0.094390679 2.4581346e-06 -2.2126833e-18)
(0.094390558 2.6215445e-06 2.2399033e-18)
(0.094390446 2.7708844e-06 0)
(0.094390341 2.9432336e-06 -2.2821402e-18)
(0.094390242 3.1226061e-06 4.5890243e-18)
(0.094390149 3.3144637e-06 -3.9011979e-28)
(0.09439006 3.4855013e-06 -2.3350051e-18)
(0.094389977 3.6440645e-06 0)
(0.094389896 3.8023782e-06 -2.3686882e-18)
(0.09438982 3.9540203e-06 4.7850108e-18)
(0.094389747 4.1038652e-06 3.72848e-28)
(0.094389679 4.2408585e-06 -2.4356963e-18)
(0.094389614 4.3722334e-06 -4.7856043e-21)
(0.094389554 4.5069858e-06 0)
(0.094389497 4.6372449e-06 -1.2444924e-18)
(0.094389445 4.7635343e-06 1.2542418e-18)
(0.094389396 4.88578e-06 0)
(0.094389352 5.0085306e-06 1.2788728e-18)
(0.094389311 5.1387528e-06 -1.2888298e-18)
(0.094389276 5.2687643e-06 -1.2938011e-18)
(0.094389243 5.3982511e-06 1.3089532e-18)
(0.094389217 5.5408781e-06 -5.1327879e-21)
(0.094389193 5.6827611e-06 0)
(0.094389175 5.8128346e-06 -3.3362462e-19)
(0.09438916 5.9368571e-06 3.4147013e-19)
(0.094389151 6.065346e-06 0)
(0.094389145 6.1972218e-06 5.3352331e-21)
(0.094389147 6.3250006e-06 -9.1401032e-20)
(0.094389151 6.4488318e-06 9.1504589e-20)
(0.094389164 6.5756825e-06 -3.4227364e-19)
(0.094389181 6.7081718e-06 5.3083089e-21)
(0.094389204 6.8440408e-06 3.4247429e-19)
(0.094389231 6.9794871e-06 6.6938957e-19)
(0.094389263 7.1128993e-06 -1.3339917e-18)
(0.094389298 7.2470684e-06 -6.6459537e-19)
(0.09438934 7.3768907e-06 1.3090345e-18)
(0.094389383 7.5071736e-06 1.2992403e-18)
(0.094389433 7.6403396e-06 -1.2894996e-18)
(0.094389484 7.7775587e-06 0)
(0.094389542 7.9109362e-06 0)
(0.094389601 8.0428556e-06 0)
(0.094389666 8.1778214e-06 -4.8865237e-21)
(0.094389734 8.3081179e-06 0)
(0.094389807 8.4442757e-06 2.4588456e-18)
(0.094389883 8.5783616e-06 -2.4493371e-18)
(0.094389965 8.7248515e-06 4.7372405e-21)
(0.094390049 8.8673448e-06 -4.6999308e-21)
(0.094390139 9.0206969e-06 0)
(0.094390232 9.1713015e-06 0)
(0.094390332 9.3303088e-06 2.3489397e-18)
(0.094390434 9.4854464e-06 -2.3252027e-18)
(0.094390543 9.6504284e-06 0)
(0.094390655 9.8099671e-06 0)
(0.094390774 9.9807301e-06 -2.2810747e-18)
(0.094390897 1.0146014e-05 6.0205137e-28)
(0.094391027 1.0323607e-05 2.2428314e-18)
(0.094391163 1.0496164e-05 0)
(0.094391307 1.0682203e-05 -8.5808254e-21)
(0.094391456 1.08637e-05 0)
(0.094391615 1.1060291e-05 -8.4402057e-21)
(0.09439178 1.1252511e-05 0)
(0.094391958 1.146212e-05 8.3096023e-21)
(0.094392142 1.1671131e-05 -2.1120442e-18)
(0.094392342 1.1893985e-05 2.0982379e-18)
(0.094392549 1.2126086e-05 -1.6298862e-20)
(0.094392777 1.2353028e-05 0)
(0.094393017 1.2625014e-05 5.1751976e-19)
(0.094393295 1.2816583e-05 -5.0227267e-19)
(0.094540365 1.2015957e-06 5.2357591e-19)
(0.094462483 -3.9327631e-07 -5.2657269e-19)
(0.094431775 8.7102475e-07 4.9676974e-20)
(0.094418636 3.6661875e-07 3.3211127e-20)
(0.094412705 9.1109112e-07 2.1574973e-18)
(0.094409882 8.966584e-07 -2.1207519e-18)
(0.094408453 1.1781128e-06 8.2816082e-21)
(0.094407674 1.3036898e-06 -2.1247483e-18)
(0.094407214 1.5332851e-06 2.1261995e-18)
(0.094406914 1.6771335e-06 -1.6782617e-20)
(0.094406697 1.8999855e-06 2.1643456e-18)
(0.094406527 2.0401202e-06 2.6451685e-27)
(0.094406381 2.2418897e-06 -2.2092536e-18)
(0.094406252 2.3653244e-06 -8.6708153e-21)
(0.094406132 2.5118656e-06 0)
(0.094406021 2.6124566e-06 2.267281e-18)
(0.094405915 2.7307901e-06 -2.2823367e-18)
(0.094405816 2.8552422e-06 1.3460682e-20)
(0.094405721 3.0056483e-06 2.3256957e-18)
(0.094405632 3.1757131e-06 -2.3268225e-18)
(0.094405546 3.3671238e-06 0)
(0.094405465 3.5583623e-06 -2.3883159e-18)
(0.094405387 3.7378027e-06 2.3935791e-18)
(0.094405313 3.8944544e-06 0)
(0.094405243 4.0292253e-06 4.7498087e-21)
(0.094405176 4.1525035e-06 4.7872709e-21)
(0.094405112 4.2563351e-06 0)
(0.094405053 4.3562661e-06 1.2447885e-18)
(0.094404997 4.4528325e-06 1.2439317e-27)
(0.094404946 4.5420316e-06 -1.2740656e-18)
(0.094404896 4.6289223e-06 -4.9764458e-21)
(0.094404853 4.7196598e-06 -1.2787985e-18)
(0.094404811 4.818322e-06 1.2937287e-18)
(0.094404776 4.9196735e-06 6.5695342e-19)
(0.094404742 5.0270574e-06 -6.5176628e-19)
(0.094404715 5.1357495e-06 1.034341e-20)
(0.09440469 5.2584703e-06 3.3876317e-19)
(0.094404672 5.404038e-06 -6.7752292e-19)
(0.094404656 5.566485e-06 3.3344789e-19)
(0.094404646 5.7292085e-06 -5.3338509e-21)
(0.09440464 5.8545106e-06 5.375161e-21)
(0.094404641 5.9286914e-06 -5.3789671e-21)
(0.094404646 5.993392e-06 0)
(0.094404657 6.0788919e-06 -3.4465061e-19)
(0.094404671 6.197081e-06 -3.4734883e-19)
(0.094404691 6.3346356e-06 6.6863345e-19)
(0.094404714 6.4787478e-06 5.1848342e-21)
(0.094404742 6.6223058e-06 5.1462514e-21)
(0.094404772 6.7455139e-06 0)
(0.094404808 6.8698826e-06 1.0139748e-20)
(0.094404846 7.0175514e-06 -1.2882035e-18)
(0.094404889 7.1854329e-06 1.2785693e-18)
(0.094404935 7.3339898e-06 -1.2590636e-18)
(0.094404985 7.4720613e-06 1.2594194e-18)
(0.094405038 7.6078693e-06 -1.2450034e-18)
(0.094405096 7.7181411e-06 1.2403665e-18)
(0.094405157 7.8293573e-06 2.4665125e-18)
(0.094405222 7.9189958e-06 -2.4378956e-18)
(0.094405291 8.0360495e-06 2.409399e-18)
(0.094405363 8.143986e-06 -2.3903983e-18)
(0.094405439 8.2834073e-06 0)
(0.094405519 8.415871e-06 9.2424244e-21)
(0.094405603 8.5703224e-06 -2.3467248e-18)
(0.09440569 8.7140161e-06 2.3227458e-18)
(0.094405782 8.8794196e-06 -2.3077603e-18)
(0.094405878 9.0277599e-06 2.2791945e-18)
(0.094405979 9.1977159e-06 8.8610032e-21)
(0.094406083 9.348774e-06 2.2486184e-18)
(0.094406194 9.5223227e-06 -2.2200768e-18)
(0.094406308 9.6784892e-06 2.2089195e-18)
(0.094406431 9.8587007e-06 8.5511435e-21)
(0.094406556 1.0023771e-05 -4.3556599e-18)
(0.094406691 1.0215222e-05 2.5192873e-20)
(0.094406829 1.0392857e-05 2.1305061e-18)
(0.094406979 1.0599074e-05 -2.4745636e-20)
(0.094407131 1.0793637e-05 1.6354076e-20)
(0.094407299 1.1008677e-05 0)
(0.094407469 1.1229818e-05 1.6088486e-20)
(0.094407661 1.1440744e-05 0)
(0.094407853 1.1705276e-05 0)
(0.094408088 1.1931248e-05 0)
(0.094544634 1.5167117e-06 -5.1293259e-19)
(0.094471283 -4.8835289e-07 5.1651907e-19)
(0.094443181 9.1216644e-07 9.7755365e-19)
(0.094431509 3.0986756e-07 -1.0479185e-18)
(0.094426384 8.6006584e-07 -3.2787412e-20)
(0.094423993 8.215329e-07 0)
(0.094422798 1.0871679e-06 3.284988e-20)
(0.094422148 1.1984791e-06 -2.1110643e-18)
(0.09442176 1.4038997e-06 -4.3440484e-27)
(0.094421501 1.5339179e-06 2.1573646e-18)
(0.094421309 1.7329488e-06 0)
(0.094421153 1.8675423e-06 2.1782599e-18)
(0.094421018 2.0636206e-06 -2.1981092e-18)
(0.094420895 2.2004917e-06 0)
(0.09442078 2.3637296e-06 0)
(0.094420673 2.4779169e-06 2.2493611e-18)
(0.094420569 2.5834431e-06 -2.2691398e-18)
(0.094420472 2.6665596e-06 -2.6926789e-20)
(0.094420377 2.7606412e-06 2.3082733e-18)
(0.094420288 2.869251e-06 -2.3458901e-18)
(0.094420202 3.0003592e-06 -1.8406862e-20)
(0.094420122 3.1481737e-06 9.2785069e-21)
(0.094420044 3.3122555e-06 0)
(0.094419971 3.4774268e-06 0)
(0.0944199 3.6308317e-06 -2.4325676e-18)
(0.094419835 3.7761768e-06 2.4516123e-18)
(0.09441977 3.9010298e-06 -9.6510721e-21)
(0.094419711 4.016476e-06 1.2448912e-18)
(0.094419653 4.1257067e-06 -1.2642788e-18)
(0.094419601 4.2215095e-06 9.8758681e-21)
(0.09441955 4.3113827e-06 0)
(0.094419504 4.3986453e-06 0)
(0.09441946 4.4826937e-06 1.0104536e-20)
(0.094419421 4.5604838e-06 -6.5164663e-19)
(0.094419384 4.6389973e-06 6.5664724e-19)
(0.094419354 4.7185581e-06 -6.8237294e-19)
(0.094419324 4.7952747e-06 6.6158218e-19)
(0.094419302 4.8818237e-06 -1.0499014e-20)
(0.094419281 4.9757022e-06 -1.639929e-19)
(0.094419269 5.0821958e-06 1.7059343e-19)
(0.094419257 5.1888861e-06 8.5957417e-20)
(0.094419254 5.285714e-06 9.6730513e-20)
(0.094419252 5.3943789e-06 -1.7071354e-19)
(0.094419258 5.520007e-06 3.3888402e-19)
(0.094419265 5.6733657e-06 -1.0038325e-18)
(0.094419279 5.8318361e-06 6.5729363e-19)
(0.094419294 5.9827301e-06 -6.6277165e-19)
(0.094419315 6.1278158e-06 -6.5785805e-19)
(0.094419338 6.2652119e-06 1.3059671e-18)
(0.094419366 6.3984441e-06 -1.2962896e-18)
(0.094419396 6.5193669e-06 -9.3587213e-28)
(0.094419432 6.6200101e-06 2.5642085e-18)
(0.094419469 6.710105e-06 -1.2675994e-18)
(0.094419511 6.779185e-06 0)
(0.094419556 6.8649924e-06 0)
(0.094419605 6.9354361e-06 -9.6812446e-21)
(0.094419656 7.0414865e-06 0)
(0.094419711 7.1278451e-06 0)
(0.094419768 7.2603848e-06 9.4591111e-21)
(0.09441983 7.3636426e-06 -9.38454e-21)
(0.094419893 7.5140318e-06 0)
(0.094419961 7.6277982e-06 9.2340245e-21)
(0.09442003 7.7879354e-06 0)
(0.094420105 7.9062275e-06 -1.8162349e-20)
(0.094420182 8.0709078e-06 -2.2869361e-18)
(0.094420263 8.1911254e-06 8.925412e-21)
(0.094420348 8.3586e-06 2.2469642e-18)
(0.094420437 8.4809111e-06 0)
(0.09442053 8.6534939e-06 -3.4742594e-20)
(0.094420627 8.7800194e-06 2.2026474e-18)
(0.094420728 8.9604136e-06 -2.1815876e-18)
(0.094420835 9.0946216e-06 -2.1434915e-18)
(0.094420946 9.286683e-06 2.0888946e-18)
(0.094421063 9.4308665e-06 3.3087737e-20)
(0.094421186 9.6381859e-06 -2.0798243e-18)
(0.094421315 9.7970675e-06 -4.862965e-20)
(0.094421452 1.003988e-05 1.0268584e-18)
(0.094421594 1.0174339e-05 1.0482079e-18)
(0.094421751 1.0489684e-05 0)
(0.094421908 1.0575377e-05 -4.9822181e-19)
(0.094422102 1.0905158e-05 4.8116263e-19)
(0.094548304 1.7020351e-06 0)
(0.094479125 -5.374461e-07 6.3340255e-20)
(0.094453451 9.2395422e-07 1.0580114e-18)
(0.09444313 2.7383384e-07 -1.0009348e-18)
(0.094438726 8.1485714e-07 2.1051366e-18)
(0.094436715 7.6298312e-07 -2.0448303e-18)
(0.094435722 1.0108996e-06 -6.5161891e-20)
(0.094435182 1.1128464e-06 0)
(0.094434855 1.300113e-06 -3.3037015e-20)
(0.094434631 1.4164312e-06 -2.1333545e-18)
(0.09443446 1.5885472e-06 4.3073081e-18)
(0.094434317 1.7011726e-06 -2.1745362e-18)
(0.094434189 1.8666288e-06 0)
(0.094434073 1.9913572e-06 -2.2165281e-18)
(0.094433964 2.1587011e-06 2.2198167e-18)
(0.09443386 2.2952098e-06 -2.2578124e-18)
(0.09443376 2.4322541e-06 -3.9678007e-27)
(0.094433666 2.5309105e-06 4.6140846e-18)
(0.094433573 2.6115726e-06 -2.3359324e-18)
(0.094433486 2.6789726e-06 0)
(0.0944334 2.7573373e-06 1.841188e-20)
(0.094433321 2.851763e-06 0)
(0.094433243 2.9633579e-06 0)
(0.09443317 3.092418e-06 0)
(0.0944331 3.2298007e-06 1.9006658e-20)
(0.094433034 3.371685e-06 -1.225863e-18)
(0.094432971 3.5059035e-06 -9.6507564e-21)
(0.094432911 3.6332403e-06 1.2447488e-18)
(0.094432854 3.7567367e-06 1.9597316e-20)
(0.094432801 3.8662437e-06 -1.2637507e-18)
(0.09443275 3.9691291e-06 1.2733293e-18)
(0.094432703 4.0681784e-06 0)
(0.094432659 4.159512e-06 -2.0198478e-20)
(0.094432619 4.2401939e-06 6.4108296e-19)
(0.094432581 4.3162417e-06 -6.5621508e-19)
(0.094432548 4.3843207e-06 1.0331616e-20)
(0.094432516 4.435803e-06 1.0410701e-20)
(0.094432491 4.4875107e-06 -3.2521071e-19)
(0.094432467 4.5461161e-06 3.3828793e-19)
(0.09443245 4.6188861e-06 0)
(0.094432434 4.7077153e-06 -8.5869225e-20)
(0.094432427 4.8102354e-06 7.5129501e-20)
(0.09443242 4.9314144e-06 0)
(0.094432421 5.0655072e-06 0)
(0.094432423 5.2071578e-06 0)
(0.094432432 5.3340007e-06 1.1790949e-26)
(0.094432442 5.4501157e-06 0)
(0.094432459 5.5651238e-06 0)
(0.094432476 5.6800091e-06 0)
(0.094432499 5.7837102e-06 -1.3045692e-18)
(0.094432524 5.8704378e-06 1.2849277e-18)
(0.094432553 5.9372796e-06 1.2555281e-18)
(0.094432584 6.0144117e-06 -1.2759231e-18)
(0.094432619 6.0871997e-06 1.9634981e-20)
(0.094432655 6.1867041e-06 -1.9488505e-20)
(0.094432696 6.2691949e-06 2.9013121e-20)
(0.094432738 6.3831602e-06 -2.4762147e-18)
(0.094432784 6.4717761e-06 2.438195e-18)
(0.094432831 6.5962135e-06 0)
(0.094432883 6.6910766e-06 -1.8751919e-20)
(0.094432936 6.825897e-06 -1.8602008e-20)
(0.094432994 6.9283301e-06 -2.3801333e-18)
(0.094433052 7.0713822e-06 2.3420893e-18)
(0.094433115 7.1783361e-06 -2.3041036e-18)
(0.094433179 7.3258601e-06 4.5862667e-18)
(0.094433249 7.434918e-06 -4.5634011e-18)
(0.094433319 7.5858074e-06 2.2786079e-18)
(0.094433396 7.697817e-06 0)
(0.094433472 7.8545176e-06 1.7330896e-20)
(0.094433555 7.971092e-06 0)
(0.094433639 8.1355228e-06 2.1742026e-18)
(0.09443373 8.2599756e-06 -4.3030385e-18)
(0.094433821 8.4347605e-06 3.3256598e-20)
(0.09443392 8.5679865e-06 2.1049124e-18)
(0.094434021 8.7603585e-06 -2.0809997e-18)
(0.094434129 8.9016901e-06 2.0888299e-18)
(0.09443424 9.1437533e-06 9.8425588e-19)
(0.094434359 9.2391496e-06 -1.0348453e-18)
(0.094434484 9.6109954e-06 0)
(0.094434617 9.562593e-06 0)
(0.09443477 1.014815e-05 0)
(0.094551576 1.782985e-06 0)
(0.094486281 -5.5713747e-07 -1.0565036e-18)
(0.094462888 9.0520138e-07 1.0094547e-18)
(0.094453811 2.4331766e-07 9.5501635e-19)
(0.094450055 7.6260737e-07 -3.1031447e-18)
(0.094448376 7.0553475e-07 2.0240839e-18)
(0.094447557 9.352892e-07 6.4640163e-20)
(0.094447111 1.0313424e-06 0)
(0.094446836 1.2059054e-06 3.2887805e-20)
(0.094446641 1.3159838e-06 3.3223462e-20)
(0.094446488 1.4701908e-06 0)
(0.094446357 1.5683752e-06 2.2048019e-18)
(0.094446238 1.704685e-06 3.4266579e-20)
(0.094446127 1.8022475e-06 5.0405509e-27)
(0.094446023 1.9372939e-06 -4.4202604e-18)
(0.094445924 2.0552132e-06 2.2573634e-18)
(0.094445829 2.2009519e-06 0)
(0.094445738 2.3319679e-06 1.7955013e-20)
(0.094445649 2.4473e-06 1.8110625e-20)
(0.094445565 2.5317538e-06 0)
(0.094445483 2.5959446e-06 0)
(0.094445404 2.653184e-06 -1.8564563e-20)
(0.094445328 2.7208036e-06 2.3952233e-18)
(0.094445257 2.8022119e-06 -2.4140434e-18)
(0.094445187 2.8937038e-06 -1.9005989e-20)
(0.094445122 2.9995009e-06 -1.2257139e-18)
(0.09444506 3.115606e-06 1.2543321e-18)
(0.094445001 3.232675e-06 1.2443628e-18)
(0.094444945 3.3534142e-06 -2.5172263e-18)
(0.094444892 3.4676136e-06 1.2631103e-18)
(0.094444842 3.5778597e-06 0)
(0.094444795 3.6863228e-06 2.0032552e-20)
(0.094444752 3.7865231e-06 1.3017819e-18)
(0.094444711 3.8760135e-06 -1.2810587e-18)
(0.094444673 3.9621934e-06 2.0487504e-20)
(0.09444464 4.043195e-06 0)
(0.094444608 4.109804e-06 3.2239141e-19)
(0.094444581 4.1684794e-06 5.3296319e-28)
(0.094444556 4.2206079e-06 -4.9629857e-19)
(0.094444536 4.2762296e-06 1.7025463e-19)
(0.094444518 4.3512031e-06 8.574103e-20)
(0.094444507 4.4493019e-06 -8.5704369e-20)
(0.094444498 4.5610829e-06 3.5088566e-19)
(0.094444495 4.6618356e-06 -6.7543431e-19)
(0.094444494 4.7491381e-06 3.3521108e-19)
(0.094444499 4.8203684e-06 1.0397947e-20)
(0.094444506 4.888311e-06 0)
(0.094444518 4.9624678e-06 -1.3319439e-18)
(0.094444532 5.046736e-06 1.3018614e-18)
(0.09444455 5.1301048e-06 0)
(0.094444569 5.2131214e-06 -1.2829306e-18)
(0.094444593 5.2907685e-06 2.557081e-18)
(0.094444618 5.3955008e-06 -1.2642487e-18)
(0.094444647 5.4880293e-06 -1.2745729e-18)
(0.094444676 5.5997305e-06 1.2456951e-18)
(0.09444471 5.6885661e-06 -2.4921662e-18)
(0.094444745 5.7979096e-06 4.9276998e-18)
(0.094444784 5.8791917e-06 -2.4355985e-18)
(0.094444823 5.9895838e-06 0)
(0.094444868 6.0738004e-06 1.8733368e-20)
(0.094444912 6.1931557e-06 2.3973081e-18)
(0.094444961 6.2857433e-06 -2.3777667e-18)
(0.09444501 6.4136873e-06 2.3396593e-18)
(0.094445065 6.511053e-06 -2.3196549e-18)
(0.094445119 6.6432276e-06 0)
(0.094445178 6.7425591e-06 -2.2784941e-18)
(0.094445237 6.8782258e-06 2.2572526e-18)
(0.094445302 6.9808486e-06 0)
(0.094445366 7.1225811e-06 0)
(0.094445437 7.2299843e-06 0)
(0.094445507 7.3795351e-06 -2.20077e-18)
(0.094445584 7.4954863e-06 4.3190431e-18)
(0.09444566 7.6545989e-06 3.3092917e-20)
(0.094445743 7.7782569e-06 -2.1250625e-18)
(0.094445826 7.957072e-06 0)
(0.094445916 8.0833224e-06 1.9750719e-18)
(0.094446007 8.319959e-06 -2.9845739e-18)
(0.094446106 8.3868136e-06 6.1923424e-20)
(0.094446207 8.7891311e-06 9.7567836e-19)
(0.094446317 8.6510359e-06 0)
(0.09444644 9.414373e-06 0)
(0.094554382 1.7836719e-06 4.5419079e-19)
(0.094492729 -5.5158329e-07 -4.8787987e-19)
(0.094471489 8.6512033e-07 6.2076882e-20)
(0.094463557 2.2023499e-07 1.0670803e-18)
(0.09446038 7.0827079e-07 -1.0112483e-18)
(0.094458991 6.5307611e-07 0)
(0.09445832 8.6466488e-07 -3.2067411e-20)
(0.094457953 9.5502373e-07 0)
(0.094457721 1.1169801e-06 -2.0955784e-18)
(0.094457553 1.223103e-06 2.0863295e-18)
(0.094457416 1.369539e-06 0)
(0.094457295 1.4675354e-06 -2.2011326e-18)
(0.094457184 1.5936889e-06 -3.4227252e-20)
(0.09445708 1.6781512e-06 4.4264415e-18)
(0.094456981 1.783446e-06 -2.2702366e-18)
(0.094456886 1.8672618e-06 3.5262767e-20)
(0.094456795 1.9764508e-06 2.2421977e-18)
(0.094456708 2.0880619e-06 -2.2982682e-18)
(0.094456624 2.2172881e-06 0)
(0.094456544 2.3351726e-06 0)
(0.094456466 2.4315992e-06 -1.8416322e-20)
(0.094456391 2.5031538e-06 1.8565105e-20)
(0.094456317 2.5572171e-06 -2.3764327e-18)
(0.094456248 2.6053015e-06 2.4137765e-18)
(0.09445618 2.6633245e-06 0)
(0.094456117 2.7299954e-06 1.2253443e-18)
(0.094456056 2.8069074e-06 -1.2345302e-18)
(0.094455999 2.8904725e-06 1.9433059e-20)
(0.094455943 2.9848959e-06 -1.9576922e-20)
(0.094455892 3.0842703e-06 0)
(0.094455842 3.1841928e-06 -1.9866802e-20)
(0.094455798 3.2869594e-06 -2.0013378e-20)
(0.094455753 3.3860425e-06 1.2701636e-18)
(0.094455715 3.4776583e-06 -1.3405193e-18)
(0.094455677 3.5699312e-06 6.3433033e-19)
(0.094455644 3.663037e-06 -6.5969887e-19)
(0.094455612 3.7492227e-06 0)
(0.094455585 3.8347009e-06 -2.0928528e-20)
(0.094455559 3.9178327e-06 1.7925048e-19)
(0.094455539 3.9936013e-06 -1.70002e-19)
(0.09445552 4.0679737e-06 2.1396609e-20)
(0.094455508 4.1420964e-06 -1.7104514e-19)
(0.094455497 4.2076039e-06 -1.8037443e-19)
(0.094455493 4.2593886e-06 3.3700009e-19)
(0.094455489 4.3066715e-06 0)
(0.094455492 4.343657e-06 2.0752763e-20)
(0.094455495 4.3888791e-06 0)
(0.094455504 4.4428288e-06 1.9262679e-26)
(0.094455513 4.5126064e-06 2.0302644e-20)
(0.094455527 4.5879395e-06 0)
(0.094455541 4.6808273e-06 1.2806668e-18)
(0.094455561 4.7693679e-06 -2.5428495e-18)
(0.09445558 4.8774437e-06 2.5441897e-18)
(0.094455605 4.9665504e-06 -1.2530753e-18)
(0.094455629 5.071737e-06 1.943642e-20)
(0.094455658 5.1510116e-06 -2.4695551e-18)
(0.094455686 5.2494692e-06 -3.7687242e-27)
(0.094455721 5.3237864e-06 4.86545e-18)
(0.094455753 5.4247849e-06 -2.4141071e-18)
(0.094455792 5.504163e-06 2.3952895e-18)
(0.094455829 5.6135442e-06 -2.3576581e-18)
(0.094455872 5.6991747e-06 1.841292e-20)
(0.094455913 5.8134614e-06 -2.3371284e-18)
(0.09445596 5.9010968e-06 2.3350951e-18)
(0.094456006 6.0175817e-06 -3.5881144e-20)
(0.094456057 6.1071441e-06 2.2752723e-18)
(0.094456107 6.2276414e-06 -2.2887812e-18)
(0.094456163 6.3216831e-06 2.2312206e-18)
(0.094456217 6.4490095e-06 -4.4163556e-18)
(0.094456278 6.5486701e-06 2.1843574e-18)
(0.094456337 6.6844667e-06 2.1597043e-18)
(0.094456402 6.7927215e-06 -4.2682868e-18)
(0.094456466 6.937866e-06 2.1075951e-18)
(0.094456536 7.0531968e-06 3.2499603e-20)
(0.094456605 7.2190863e-06 0)
(0.094456681 7.332547e-06 6.3160161e-20)
(0.094456755 7.5603153e-06 9.3264901e-19)
(0.094456838 7.6070137e-06 -1.0394497e-18)
(0.09445692 8.0221063e-06 -1.0209619e-18)
(0.094457011 7.8264356e-06 1.3548416e-18)
(0.09445711 8.6991198e-06 -4.5169762e-19)
(0.094556744 1.7204755e-06 1.1129173e-19)
(0.094498543 -5.2638622e-07 -1.19705e-19)
(0.094479344 8.0731e-07 -6.1079604e-20)
(0.094472467 2.0102615e-07 -6.1882287e-20)
(0.094469803 6.4990427e-07 0)
(0.094468666 6.0126173e-07 -2.0155943e-18)
(0.09446812 7.9390817e-07 1.9730225e-18)
(0.094467819 8.7646666e-07 0)
(0.094467624 1.0215935e-06 0)
(0.094467477 1.1181253e-06 0)
(0.094467354 1.2542366e-06 0)
(0.094467244 1.3517048e-06 2.1298741e-18)
(0.094467141 1.4757178e-06 5.1621321e-27)
(0.094467045 1.565715e-06 -2.2115025e-18)
(0.094466951 1.6681629e-06 0)
(0.094466862 1.7404945e-06 -7.0505431e-20)
(0.094466775 1.820885e-06 7.1170629e-20)
(0.094466693 1.8934106e-06 -1.7954208e-20)
(0.094466612 1.9843404e-06 0)
(0.094466536 2.0871839e-06 -2.3379389e-18)
(0.094466462 2.2009021e-06 2.3756105e-18)
(0.094466391 2.3005683e-06 0)
(0.094466322 2.3829995e-06 -1.8708862e-20)
(0.094466256 2.4470637e-06 0)
(0.094466191 2.4975858e-06 -2.4503666e-18)
(0.094466131 2.5384612e-06 2.4494929e-18)
(0.094466071 2.5856448e-06 -1.2337764e-18)
(0.094466017 2.6399434e-06 -3.8837502e-20)
(0.094465962 2.7007791e-06 1.2518407e-18)
(0.094465913 2.7693636e-06 -1.9701875e-20)
(0.094465864 2.8423027e-06 -1.2502151e-18)
(0.094465821 2.9227004e-06 1.259289e-18)
(0.094465777 3.006504e-06 1.2885915e-18)
(0.09446574 3.0881924e-06 -1.2777354e-18)
(0.094465702 3.1735824e-06 0)
(0.094465671 3.2636312e-06 -6.3804555e-19)
(0.094465639 3.3530969e-06 6.6354473e-19)
(0.094465614 3.4480737e-06 3.5516108e-19)
(0.094465588 3.5457881e-06 -5.262587e-19)
(0.094465569 3.6316889e-06 8.4845408e-20)
(0.094465549 3.7040564e-06 6.4053068e-20)
(0.094465537 3.7608109e-06 0)
(0.094465525 3.8042953e-06 3.3870317e-19)
(0.094465521 3.843515e-06 -3.3618487e-19)
(0.094465515 3.8891387e-06 -6.882666e-19)
(0.094465517 3.9281684e-06 1.3043462e-18)
(0.094465517 3.9805572e-06 -6.3715789e-19)
(0.094465524 4.0324118e-06 2.0405138e-20)
(0.094465529 4.1024314e-06 -1.3168136e-18)
(0.094465541 4.1708286e-06 1.2872888e-18)
(0.094465551 4.2571868e-06 1.2980847e-18)
(0.094465568 4.3334162e-06 -2.5181981e-18)
(0.094465583 4.4248955e-06 1.2402798e-18)
(0.094465605 4.4982358e-06 -1.9546146e-20)
(0.094465624 4.587017e-06 0)
(0.09446565 4.6556818e-06 -1.9264654e-20)
(0.094465673 4.7444713e-06 1.9123228e-20)
(0.094465704 4.8150932e-06 -2.4295442e-18)
(0.094465731 4.9094767e-06 -1.8836963e-20)
(0.094465765 4.9850699e-06 2.3924795e-18)
(0.094465796 5.0836913e-06 -3.708638e-20)
(0.094465834 5.1606349e-06 1.8392295e-20)
(0.094465869 5.259571e-06 0)
(0.094465911 5.3362693e-06 -5.4240053e-20)
(0.094465949 5.4374499e-06 7.167024e-20)
(0.094465995 5.5178722e-06 -3.5500265e-20)
(0.094466037 5.6251338e-06 3.5154355e-20)
(0.094466086 5.7117061e-06 -2.2617404e-18)
(0.094466132 5.8265082e-06 2.2031476e-18)
(0.094466185 5.9194003e-06 -2.2124188e-18)
(0.094466234 6.0425968e-06 2.1861982e-18)
(0.094466291 6.1435036e-06 -3.3212379e-20)
(0.094466344 6.2762469e-06 -2.1301206e-18)
(0.094466405 6.3842356e-06 2.0354088e-18)
(0.094466462 6.5377767e-06 0)
(0.094466526 6.6403469e-06 -6.2615633e-20)
(0.094466588 6.856483e-06 1.2306065e-19)
(0.094466657 6.8903109e-06 0)
(0.094466724 7.3023862e-06 5.9154339e-20)
(0.094466801 7.0766103e-06 5.7844767e-20)
(0.09446688 8.0004131e-06 -1.1061295e-19)
(0.09455865 1.6089521e-06 -1.0909766e-19)
(0.094503755 -4.8478943e-07 1.1749777e-19)
(0.094486501 7.3788884e-07 -1.2019709e-19)
(0.094480591 1.8889536e-07 0)
(0.094478383 5.9306718e-07 6.1685908e-20)
(0.094477461 5.5501552e-07 1.9337407e-18)
(0.094477021 7.2752674e-07 -3.9799057e-18)
(0.094476775 8.0162232e-07 -6.3695025e-27)
(0.09447661 9.2710061e-07 2.0129643e-18)
(0.094476482 1.0088309e-06 2.1061967e-18)
(0.09447637 1.1281279e-06 -2.1336701e-18)
(0.09447627 1.2132002e-06 6.7503178e-20)
(0.094476175 1.3278902e-06 3.4147584e-20)
(0.094476085 1.4177047e-06 2.2442538e-18)
(0.094475998 1.522576e-06 -2.2330283e-18)
(0.094475915 1.6047215e-06 3.5240968e-20)
(0.094475833 1.6871698e-06 -2.2769963e-18)
(0.094475756 1.7496476e-06 2.2978413e-18)
(0.09447568 1.8140489e-06 0)
(0.094475608 1.8774299e-06 -1.8263098e-20)
(0.094475538 1.958551e-06 0)
(0.094475471 2.0506306e-06 -1.8559122e-20)
(0.094475406 2.1482638e-06 1.8702889e-20)
(0.094475345 2.235024e-06 0)
(0.094475284 2.3101099e-06 1.474231e-26)
(0.094475227 2.3692383e-06 -1.2239089e-18)
(0.09447517 2.416979e-06 -1.9261887e-20)
(0.094475118 2.4557715e-06 1.2610001e-18)
(0.094475066 2.4913126e-06 1.5191562e-26)
(0.09447502 2.5361663e-06 1.9677258e-20)
(0.094474972 2.5854293e-06 1.9817131e-20)
(0.094474931 2.6392997e-06 -1.2573746e-18)
(0.094474889 2.699266e-06 1.3065732e-18)
(0.094474853 2.7615872e-06 0)
(0.094474817 2.828511e-06 -6.3217155e-19)
(0.094474786 2.9000297e-06 1.294133e-18)
(0.094474755 2.9744882e-06 -1.0139805e-18)
(0.09447473 3.055532e-06 3.127173e-19)
(0.094474705 3.1415582e-06 0)
(0.094474686 3.2199752e-06 0)
(0.094474668 3.2876728e-06 0)
(0.094474655 3.3386301e-06 0)
(0.094474644 3.3919331e-06 2.1110692e-20)
(0.094474638 3.4452243e-06 3.3526549e-19)
(0.094474632 3.5080162e-06 -9.7760946e-19)
(0.094474632 3.5620907e-06 6.4011688e-19)
(0.094474632 3.6261112e-06 -6.9700512e-19)
(0.094474636 3.679529e-06 1.9539534e-18)
(0.094474641 3.7463993e-06 2.0209305e-20)
(0.09447465 3.8034908e-06 -1.2842745e-18)
(0.094474659 3.8761427e-06 -1.9925842e-20)
(0.094474673 3.9368204e-06 -1.9786142e-20)
(0.094474686 4.0122765e-06 0)
(0.094474704 4.0729026e-06 1.950912e-20)
(0.094474721 4.1491303e-06 1.9371021e-20)
(0.094474743 4.210695e-06 1.9232682e-20)
(0.094474765 4.2904783e-06 -1.9093619e-20)
(0.09447479 4.3558982e-06 0)
(0.094474815 4.4398452e-06 1.8811454e-20)
(0.094474844 4.5071759e-06 0)
(0.094474872 4.5916937e-06 1.8520496e-20)
(0.094474905 4.6578207e-06 -1.8370343e-20)
(0.094474937 4.7421989e-06 -2.3681171e-18)
(0.094474973 4.8098084e-06 2.3475022e-18)
(0.094475007 4.8993849e-06 -3.578794e-20)
(0.094475047 4.97338e-06 3.544873e-20)
(0.094475084 5.0705736e-06 0)
(0.094475127 5.1510202e-06 3.4729239e-20)
(0.094475167 5.2553916e-06 2.1981394e-18)
(0.094475213 5.3420195e-06 -4.3448917e-18)
(0.094475256 5.4537993e-06 2.1454815e-18)
(0.094475305 5.5476437e-06 0)
(0.094475351 5.6688669e-06 -2.0872002e-18)
(0.094475402 5.7687859e-06 1.991346e-18)
(0.094475452 5.9102589e-06 -6.3190148e-20)
(0.094475507 6.0036432e-06 6.2078295e-20)
(0.094475559 6.2060178e-06 -6.0894018e-20)
(0.094475617 6.23301e-06 -1.013689e-18)
(0.094475673 6.6282423e-06 1.7481766e-18)
(0.094475737 6.3953267e-06 -9.0900849e-19)
(0.094475803 7.3205206e-06 1.0837148e-19)
(0.094560091 1.4627645e-06 4.2785702e-19)
(0.094508403 -4.3270158e-07 -5.7672892e-19)
(0.094493006 6.5998065e-07 -8.2786971e-19)
(0.094487982 1.8080549e-07 -9.6231707e-19)
(0.094486175 5.3735191e-07 3.9008772e-18)
(0.094485437 5.1242657e-07 6.1788431e-20)
(0.094485088 6.645686e-07 -2.069623e-18)
(0.094484886 7.34464e-07 0)
(0.094484747 8.4690295e-07 -1.9400452e-18)
(0.094484634 9.17756e-07 2.0997394e-18)
(0.094484534 1.0172836e-06 2.1288189e-18)
(0.094484442 1.0852833e-06 -4.3804138e-18)
(0.094484355 1.1831685e-06 2.1487366e-18)
(0.094484272 1.2577582e-06 -2.2423839e-18)
(0.094484191 1.3543769e-06 2.1968844e-18)
(0.094484114 1.4363178e-06 0)
(0.094484039 1.519498e-06 -3.5568589e-20)
(0.094483967 1.5923359e-06 2.2973708e-18)
(0.094483896 1.6616794e-06 -4.6351997e-18)
(0.094483829 1.7172449e-06 2.3554306e-18)
(0.094483763 1.7740826e-06 2.3745859e-18)
(0.0944837 1.8314333e-06 1.8552407e-20)
(0.094483639 1.9036677e-06 -2.4302289e-18)
(0.094483581 1.9848238e-06 -1.8833264e-20)
(0.094483525 2.0687907e-06 -2.4282351e-18)
(0.094483472 2.1455105e-06 1.2228207e-18)
(0.094483419 2.2139774e-06 1.2314725e-18)
(0.09448337 2.2721113e-06 0)
(0.094483322 2.3172293e-06 1.3703113e-26)
(0.094483278 2.3562968e-06 0)
(0.094483234 2.3889622e-06 -1.9783949e-20)
(0.094483194 2.4223158e-06 -1.2949278e-18)
(0.094483155 2.4639662e-06 -2.0061716e-20)
(0.09448312 2.5103149e-06 1.2728218e-18)
(0.094483086 2.5588995e-06 -2.0347654e-20)
(0.094483056 2.6083785e-06 6.5581888e-19)
(0.094483027 2.6598752e-06 -6.39958e-19)
(0.094483003 2.7156121e-06 -3.119431e-19)
(0.094482979 2.7771911e-06 3.3522656e-19)
(0.094482961 2.8367435e-06 -2.1110223e-20)
(0.094482942 2.89714e-06 8.494994e-20)
(0.094482931 2.9502765e-06 -8.4816391e-20)
(0.094482919 3.0214704e-06 -2.1045346e-20)
(0.094482913 3.086693e-06 3.3423506e-19)
(0.094482907 3.1604951e-06 -3.3179353e-19)
(0.094482906 3.2208646e-06 -6.1762293e-19)
(0.094482905 3.2867019e-06 1.3286348e-18)
(0.094482909 3.3382821e-06 6.4947849e-19)
(0.094482912 3.3990315e-06 -1.3301766e-18)
(0.094482921 3.4484794e-06 -2.0014209e-20)
(0.094482928 3.5105329e-06 0)
(0.094482941 3.5615997e-06 0)
(0.094482952 3.6255127e-06 -1.2742068e-18)
(0.094482968 3.6773175e-06 1.2264753e-18)
(0.094482983 3.7427774e-06 -1.3608137e-26)
(0.094483004 3.7965008e-06 0)
(0.094483022 3.8652886e-06 0)
(0.094483046 3.9219668e-06 -2.4221535e-18)
(0.094483067 3.9934505e-06 2.4042776e-18)
(0.094483094 4.051047e-06 0)
(0.094483119 4.123219e-06 1.8495926e-20)
(0.094483149 4.181173e-06 2.348393e-18)
(0.094483177 4.2560539e-06 7.277291e-20)
(0.09448321 4.3187264e-06 -2.3444742e-18)
(0.09448324 4.4008959e-06 3.5739264e-20)
(0.094483275 4.4702503e-06 0)
(0.094483308 4.5589081e-06 0)
(0.094483347 4.6332888e-06 0)
(0.094483382 4.7276021e-06 -3.4267762e-20)
(0.094483423 4.8070927e-06 2.3884073e-26)
(0.09448346 4.9079814e-06 -2.1384408e-18)
(0.094483504 4.994436e-06 2.0757492e-18)
(0.094483543 5.1048899e-06 6.4910384e-20)
(0.094483589 5.1958013e-06 6.3861274e-20)
(0.094483631 5.3257025e-06 -1.8822833e-18)
(0.09448368 5.4111307e-06 1.9695219e-18)
(0.094483724 5.5979851e-06 9.0400789e-19)
(0.094483775 5.6227715e-06 -1.8256504e-18)
(0.094483822 5.9907141e-06 1.1482133e-18)
(0.094483878 5.7686741e-06 -1.1162e-19)
(0.094483932 6.6562893e-06 1.0619801e-19)
(0.094561069 1.2915465e-06 0)
(0.094512533 -3.7670197e-07 1.13247e-19)
(0.094498912 5.7340288e-07 1.1636856e-19)