/*--------------------------------*- C++ -*----------------------------------*\
| =========                 |                                                 |
| \\      /  F ield         | OpenFOAM: The Open Source CFD Toolbox           |
|  \\    /   O peration     | Version:  v2006                                 |
|   \\  /    A nd           | Website:  www.openfoam.com                      |
|    \\/     M anipulation  |                                                 |
\*---------------------------------------------------------------------------*/
FoamFile
{
    version     2.0;
    format      ascii;
    class       volVectorField;
    location    "10000";
    object      UMean;
}
// * * * * * * * * * * * * * * * * * * * * * * * * * * * * * * * * * * * * * //

dimensions      [0 1 -1 0 0 0 0];


internalField   nonuniform List<vector> 
102907
(
(0.094531321 7.7796021e-07 5.0305366e-19)
(0.094444087 -3.5999997e-07 -5.3693583e-19)
(0.094408355 7.0647481e-07 -1.6831645e-20)
(0.094392476 4.1560186e-07 -1.077855e-18)
(0.094385029 9.2108832e-07 1.0753473e-18)
(0.094381354 9.7523371e-07 2.1432785e-18)
(0.094379417 1.2742001e-06 -4.285336e-18)
(0.094378319 1.4113596e-06 2.1391407e-18)
(0.094377636 1.6733932e-06 8.380579e-21)
(0.09437717 1.8162401e-06 0)
(0.094376816 2.0568434e-06 0)
(0.094376527 2.2050612e-06 -2.1861724e-18)
(0.094376272 2.4122307e-06 2.2120632e-18)
(0.094376041 2.5739996e-06 -2.212831e-18)
(0.094375824 2.7557268e-06 2.2400423e-18)
(0.094375619 2.9213912e-06 0)
(0.094375422 3.0910372e-06 -2.2822606e-18)
(0.094375235 3.2537816e-06 4.5892453e-18)
(0.094375055 3.4158674e-06 4.0320977e-28)
(0.094374883 3.5742087e-06 -2.335096e-18)
(0.094374719 3.7308608e-06 0)
(0.094374565 3.8848844e-06 -2.3687584e-18)
(0.094374417 4.0369107e-06 4.7851303e-18)
(0.09437428 4.1868405e-06 2.3129739e-28)
(0.094374151 4.3349338e-06 -2.4357343e-18)
(0.094374031 4.4812344e-06 -4.7856562e-21)
(0.09437392 4.6256604e-06 0)
(0.094373819 4.7683617e-06 -1.2444942e-18)
(0.094373726 4.9096895e-06 1.2542376e-18)
(0.094373644 5.0496843e-06 0)
(0.09437357 5.1883422e-06 1.2788565e-18)
(0.094373506 5.3259662e-06 -1.2888073e-18)
(0.09437345 5.4630816e-06 -1.2937725e-18)
(0.094373405 5.5999076e-06 1.308918e-18)
(0.094373367 5.7361218e-06 -5.1326259e-21)
(0.09437334 5.8714631e-06 0)
(0.09437332 6.0055686e-06 -3.3361098e-19)
(0.094373309 6.1382365e-06 3.4145457e-19)
(0.094373304 6.269923e-06 0)
(0.094373306 6.4020368e-06 5.3349402e-21)
(0.09437331 6.5348302e-06 -9.1395593e-20)
(0.09437332 6.6679698e-06 9.1512944e-20)
(0.094373329 6.7997096e-06 -3.4235751e-19)
(0.094373344 6.9310091e-06 5.3096229e-21)
(0.094373364 7.0624628e-06 3.4255995e-19)
(0.094373393 7.1942668e-06 6.695587e-19)
(0.094373427 7.3266172e-06 -1.3343322e-18)
(0.094373473 7.4596647e-06 -6.6476672e-19)
(0.094373526 7.5935795e-06 1.3093754e-18)
(0.09437359 7.7284262e-06 1.2995821e-18)
(0.094373661 7.8644865e-06 -1.2898422e-18)
(0.094373743 8.0013901e-06 0)
(0.094373833 8.1400496e-06 0)
(0.094373935 8.2793937e-06 0)
(0.094374044 8.4213445e-06 -4.8878732e-21)
(0.094374164 8.5635468e-06 0)
(0.094374292 8.7093462e-06 2.4595376e-18)
(0.094374431 8.8548649e-06 -2.4500329e-18)
(0.094374577 9.0052811e-06 4.7385985e-21)
(0.094374734 9.1543749e-06 -4.7012903e-21)
(0.094374898 9.310326e-06 0)
(0.094375072 9.4634923e-06 0)
(0.094375253 9.6252956e-06 2.3496372e-18)
(0.094375443 9.7834241e-06 -2.3258991e-18)
(0.09437564 9.9520062e-06 0)
(0.094375845 1.0115765e-05 0)
(0.094376056 1.0292089e-05 -2.281775e-18)
(0.094376275 1.0462301e-05 7.0126531e-28)
(0.0943765 1.0647405e-05 2.2435309e-18)
(0.094376733 1.0825112e-05 0)
(0.094376971 1.1020063e-05 -8.5835436e-21)
(0.094377217 1.1206697e-05 0)
(0.094377471 1.1412741e-05 -8.4429207e-21)
(0.094377731 1.1610127e-05 0)
(0.094378001 1.1829113e-05 8.3123173e-21)
(0.094378277 1.2041654e-05 -2.1127399e-18)
(0.094378564 1.2274255e-05 2.0989349e-18)
(0.094378857 1.2509474e-05 -1.6304325e-20)
(0.094379158 1.2748537e-05 0)
(0.094379448 1.3024368e-05 5.1769693e-19)
(0.094379712 1.3221985e-05 -5.0233123e-19)
(0.094535607 1.2206161e-06 5.2359715e-19)
(0.094453355 -3.9830876e-07 -5.2661525e-19)
(0.094420545 8.8512455e-07 4.968176e-20)
(0.094406358 3.7595263e-07 3.3214492e-20)
(0.094399872 9.3075326e-07 2.1577168e-18)
(0.094396726 9.1726894e-07 -2.120964e-18)
(0.094395086 1.2088926e-06 8.2824118e-21)
(0.094394153 1.3324206e-06 -2.1249466e-18)
(0.094393566 1.5725074e-06 2.1263894e-18)
(0.094393155 1.7072334e-06 -1.6784046e-20)
(0.094392835 1.9280252e-06 2.1645206e-18)
(0.094392566 2.0641672e-06 2.5731035e-27)
(0.094392324 2.2623403e-06 -2.2094135e-18)
(0.094392101 2.4061176e-06 -8.6714063e-21)
(0.094391889 2.5814536e-06 0)
(0.094391687 2.7306123e-06 2.2674161e-18)
(0.094391492 2.8896227e-06 -2.282463e-18)
(0.094391305 3.0378725e-06 1.346137e-20)
(0.094391124 3.1871285e-06 2.3258046e-18)
(0.094390952 3.3314117e-06 -2.3269217e-18)
(0.094390786 3.474321e-06 0)
(0.094390628 3.6140811e-06 -2.3883978e-18)
(0.094390478 3.7521577e-06 2.3936511e-18)
(0.094390337 3.88789e-06 0)
(0.094390204 4.0219051e-06 4.7499117e-21)
(0.09439008 4.1541109e-06 4.7873545e-21)
(0.094389964 4.2847446e-06 0)
(0.094389858 4.4140397e-06 1.2447996e-18)
(0.09438976 4.5417827e-06 7.1727354e-28)
(0.094389672 4.6682637e-06 -1.2740662e-18)
(0.094389593 4.7937229e-06 -4.9764269e-21)
(0.094389523 4.9178924e-06 -1.2787882e-18)
(0.094389462 5.0410014e-06 1.2937128e-18)
(0.094389411 5.1633659e-06 6.5694253e-19)
(0.094389368 5.2848731e-06 -6.5175271e-19)
(0.094389335 5.4059902e-06 1.0343151e-20)
(0.094389309 5.5270655e-06 3.3875326e-19)
(0.094389292 5.6472554e-06 -6.7750027e-19)
(0.094389281 5.7658356e-06 3.3343536e-19)
(0.094389276 5.8844969e-06 -5.3336286e-21)
(0.094389275 6.0044908e-06 5.374915e-21)
(0.094389277 6.1259478e-06 -5.3794365e-21)
(0.094389279 6.2466543e-06 0)
(0.094389287 6.3667068e-06 -3.4472814e-19)
(0.0943893 6.4866912e-06 -3.4742777e-19)
(0.094389322 6.6065188e-06 6.6878698e-19)
(0.09438935 6.7265577e-06 5.1860372e-21)
(0.094389388 6.8472149e-06 5.1474579e-21)
(0.094389433 6.9689474e-06 0)
(0.094389489 7.0918178e-06 1.0142175e-20)
(0.094389553 7.2163518e-06 -1.2885151e-18)
(0.094389627 7.3412438e-06 1.2788817e-18)
(0.094389709 7.4688486e-06 -1.2593744e-18)
(0.094389801 7.5960868e-06 1.2597334e-18)
(0.094389902 7.7280106e-06 -1.2453169e-18)
(0.094390012 7.857882e-06 1.2406818e-18)
(0.09439013 7.9947074e-06 2.4671457e-18)
(0.094390258 8.1276795e-06 -2.4385273e-18)
(0.094390393 8.2704335e-06 2.4100291e-18)
(0.094390538 8.4060671e-06 -2.3910292e-18)
(0.094390689 8.5560212e-06 0)
(0.094390849 8.6943639e-06 9.2449077e-21)
(0.094391015 8.8505121e-06 -2.3473609e-18)
(0.094391188 8.9927741e-06 2.323381e-18)
(0.094391368 9.1564791e-06 -2.3083968e-18)
(0.094391554 9.3034473e-06 2.2798284e-18)
(0.094391746 9.4757629e-06 8.8634885e-21)
(0.094391944 9.6284391e-06 2.2492542e-18)
(0.094392147 9.8103755e-06 -2.2207096e-18)
(0.094392355 9.9700869e-06 2.2095541e-18)
(0.09439257 1.0162529e-05 8.5536195e-21)
(0.094392788 1.033135e-05 -4.3569307e-18)
(0.094393014 1.0535004e-05 2.520028e-20)
(0.094393243 1.0715096e-05 2.1311372e-18)
(0.094393482 1.0931114e-05 -2.4753022e-20)
(0.094393722 1.1125379e-05 1.6358994e-20)
(0.094393975 1.135139e-05 0)
(0.094394226 1.1572002e-05 1.6093403e-20)
(0.094394489 1.1798812e-05 0)
(0.094394732 1.2062461e-05 0)
(0.094394956 1.2300269e-05 0)
(0.094539858 1.540047e-06 -5.1295371e-19)
(0.094462223 -4.9416906e-07 5.1656082e-19)
(0.094432137 9.2627555e-07 9.7764696e-19)
(0.09441951 3.18645e-07 -1.048023e-18)
(0.09441389 8.7857592e-07 -3.2790688e-20)
(0.094411215 8.4097354e-07 0)
(0.094409833 1.1160385e-06 3.2853006e-20)
(0.094409044 1.2262231e-06 -2.1112578e-18)
(0.094408541 1.4455662e-06 -4.4002772e-27)
(0.094408178 1.5696776e-06 2.1575456e-18)
(0.094407889 1.7699202e-06 0)
(0.094407639 1.8956576e-06 2.1784253e-18)
(0.09440741 2.0747093e-06 -2.1982673e-18)
(0.094407196 2.2071214e-06 0)
(0.094406991 2.3654509e-06 0)
(0.094406794 2.5016923e-06 2.2494961e-18)
(0.094406603 2.645539e-06 -2.2692669e-18)
(0.094406419 2.7800831e-06 -2.6928188e-20)
(0.094406241 2.9151891e-06 2.308384e-18)
(0.09440607 3.045828e-06 -2.345993e-18)
(0.094405905 3.1750655e-06 -1.8407596e-20)
(0.094405748 3.3014527e-06 9.2788398e-21)
(0.094405597 3.4262417e-06 0)
(0.094405455 3.5488638e-06 0)
(0.09440532 3.6699388e-06 -2.4326261e-18)
(0.094405194 3.7893486e-06 2.4516617e-18)
(0.094405076 3.9072627e-06 -9.6512286e-21)
(0.094404967 4.0239837e-06 1.2449065e-18)
(0.094404867 4.1393232e-06 -1.2642894e-18)
(0.094404776 4.253492e-06 9.8759126e-21)
(0.094404692 4.3668884e-06 0)
(0.094404619 4.4792208e-06 0)
(0.094404554 4.5904125e-06 1.0104461e-20)
(0.0944045 4.7007623e-06 -6.5163927e-19)
(0.094404452 4.8102564e-06 6.5663721e-19)
(0.094404415 4.9196716e-06 -6.8235981e-19)
(0.094404385 5.0300048e-06 6.615668e-19)
(0.094404364 5.1415115e-06 -1.0498729e-20)
(0.094404349 5.2537527e-06 -1.6398779e-19)
(0.09440434 5.3650035e-06 1.7058744e-19)
(0.094404333 5.4735664e-06 8.5954011e-20)
(0.09440433 5.5799636e-06 9.6738552e-20)
(0.094404327 5.6854338e-06 -1.7074916e-19)
(0.094404329 5.7925686e-06 3.3895548e-19)
(0.094404337 5.9011985e-06 -1.0040464e-18)
(0.094404352 6.0106266e-06 6.5743518e-19)
(0.094404374 6.1213833e-06 -6.6291585e-19)
(0.094404406 6.2322356e-06 -6.5800266e-19)
(0.094404446 6.3440021e-06 1.3062571e-18)
(0.094404495 6.4552562e-06 -1.2965803e-18)
(0.094404552 6.5686555e-06 -1.0607998e-27)
(0.09440462 6.6810731e-06 2.5647949e-18)
(0.094404694 6.7975799e-06 -1.2678921e-18)
(0.094404779 6.9107745e-06 0)
(0.094404872 7.0317131e-06 0)
(0.094404974 7.1450961e-06 -9.6835453e-21)
(0.094405083 7.2723528e-06 0)
(0.094405201 7.3852158e-06 0)
(0.094405326 7.5202973e-06 9.4614247e-21)
(0.094405459 7.6329426e-06 -9.3868572e-21)
(0.094405598 7.7764812e-06 0)
(0.094405745 7.8900212e-06 9.2363465e-21)
(0.094405898 8.0423479e-06 0)
(0.094406057 8.1576449e-06 -1.8166999e-20)
(0.09440622 8.3197965e-06 -2.2875266e-18)
(0.09440639 8.4372946e-06 8.9277365e-21)
(0.094406564 8.6103369e-06 2.2475542e-18)
(0.094406742 8.730746e-06 0)
(0.094406925 8.9158776e-06 -3.4751864e-20)
(0.094407112 9.0402535e-06 2.2032396e-18)
(0.094407304 9.2384369e-06 -2.1821786e-18)
(0.094407499 9.3686145e-06 -2.1440766e-18)
(0.094407699 9.5807595e-06 2.089469e-18)
(0.094407902 9.7190494e-06 3.30969e-20)
(0.094408112 9.9465068e-06 -2.0804044e-18)
(0.094408323 1.0094764e-05 -4.8643308e-20)
(0.094408543 1.0353215e-05 1.0271488e-18)
(0.094408762 1.0488016e-05 1.0485065e-18)
(0.094408988 1.0813148e-05 0)
(0.094409196 1.0902845e-05 -4.9836598e-19)
(0.094409383 1.1241374e-05 4.8121652e-19)
(0.094543482 1.7256281e-06 0)
(0.094470106 -5.4398759e-07 6.3345392e-20)
(0.094442567 9.3625885e-07 1.0581118e-18)
(0.09443138 2.8092131e-07 -1.0010335e-18)
(0.094426539 8.3093216e-07 2.1053442e-18)
(0.094424278 7.8026134e-07 -2.0450282e-18)
(0.094423119 1.0374653e-06 -6.516802e-20)
(0.094422454 1.1375794e-06 0)
(0.094422021 1.3383731e-06 -3.3039896e-20)
(0.094421701 1.4524664e-06 -2.1335327e-18)
(0.094421437 1.6349506e-06 4.3076519e-18)
(0.094421204 1.7498089e-06 -2.1747016e-18)
(0.094420988 1.9129293e-06 0)
(0.094420783 2.0329356e-06 -2.2166802e-18)
(0.094420586 2.1771161e-06 2.2199607e-18)
(0.094420395 2.300379e-06 -2.2579506e-18)
(0.094420209 2.4309514e-06 -4.1087891e-27)
(0.094420029 2.5526357e-06 4.6143329e-18)
(0.094419854 2.6749759e-06 -2.3360493e-18)
(0.094419686 2.7929811e-06 0)
(0.094419523 2.9097138e-06 1.8412662e-20)
(0.094419368 3.0237829e-06 0)
(0.094419218 3.1364059e-06 0)
(0.094419076 3.2469345e-06 0)
(0.094418942 3.3560685e-06 1.900718e-20)
(0.094418815 3.4636335e-06 -1.2258922e-18)
(0.094418696 3.5697617e-06 -9.6509514e-21)
(0.094418586 3.674796e-06 1.2447694e-18)
(0.094418483 3.7786285e-06 1.959757e-20)
(0.09441839 3.8812772e-06 -1.2637625e-18)
(0.094418305 3.9831654e-06 1.2733367e-18)
(0.09441823 4.0841606e-06 0)
(0.094418162 4.1840981e-06 -2.0198449e-20)
(0.094418105 4.283284e-06 6.4107976e-19)
(0.094418055 4.3817303e-06 -6.5620941e-19)
(0.094418015 4.48028e-06 1.033149e-20)
(0.094417982 4.5796117e-06 1.0410535e-20)
(0.094417957 4.6797447e-06 -3.2520432e-19)
(0.094417939 4.7805462e-06 3.3828002e-19)
(0.094417926 4.8803605e-06 0)
(0.094417916 4.9778337e-06 -8.5873272e-20)
(0.094417908 5.0733904e-06 7.5141395e-20)
(0.094417902 5.1682875e-06 0)
(0.0944179 5.2645663e-06 0)
(0.094417903 5.3622459e-06 0)
(0.094417913 5.4604656e-06 1.1994188e-26)
(0.094417931 5.5601967e-06 0)
(0.094417958 5.6597136e-06 0)
(0.094417993 5.7605611e-06 0)
(0.094418037 5.8603186e-06 -1.3048407e-18)
(0.094418089 5.9627427e-06 1.2851977e-18)
(0.09441815 6.0633265e-06 1.2557946e-18)
(0.09441822 6.1691323e-06 -1.2761966e-18)
(0.094418298 6.2701158e-06 1.9639233e-20)
(0.094418384 6.3805628e-06 -1.9492768e-20)
(0.094418478 6.4815891e-06 2.9019533e-20)
(0.09441858 6.5980884e-06 -2.4767675e-18)
(0.094418689 6.6988739e-06 2.4387449e-18)
(0.094418805 6.8222788e-06 0)
(0.094418929 6.9234367e-06 -1.8756233e-20)
(0.094419058 7.0541854e-06 -1.8606329e-20)
(0.094419193 7.1567234e-06 -2.3806914e-18)
(0.094419333 7.2952245e-06 2.3426436e-18)
(0.094419479 7.399728e-06 -2.3046539e-18)
(0.094419629 7.5472344e-06 4.5873719e-18)
(0.094419783 7.6541748e-06 -4.5645104e-18)
(0.094419941 7.8116383e-06 2.2791666e-18)
(0.094420103 7.9219113e-06 0)
(0.094420268 8.0904215e-06 1.7335216e-20)
(0.094420437 8.2050435e-06 0)
(0.094420608 8.3856774e-06 2.1747529e-18)
(0.094420783 8.5063957e-06 -4.3041357e-18)
(0.09442096 8.7003425e-06 3.3265141e-20)
(0.094421141 8.8290241e-06 2.1054568e-18)
(0.094421324 9.0396967e-06 -2.0815417e-18)
(0.094421512 9.174303e-06 2.0893775e-18)
(0.094421702 9.4294293e-06 9.8451561e-19)
(0.094421895 9.5258349e-06 -1.0351201e-18)
(0.094422087 9.9079169e-06 0)
(0.09442227 9.8611074e-06 0)
(0.09442242 1.0458398e-05 0)
(0.094546683 1.8047142e-06 0)
(0.094477279 -5.6356226e-07 -1.0565898e-18)
(0.094452142 9.15222e-07 1.00955e-18)
(0.094442286 2.4865861e-07 9.5510965e-19)
(0.094438145 7.7582646e-07 -3.1034472e-18)
(0.094436248 7.1980931e-07 2.0242776e-18)
(0.094435283 9.5803326e-07 6.4646181e-20)
(0.094434723 1.0495742e-06 0)
(0.094434351 1.2329197e-06 3.2890655e-20)
(0.094434067 1.3379517e-06 3.3226225e-20)
(0.094433826 1.503627e-06 0)
(0.09443361 1.609156e-06 2.2049698e-18)
(0.094433406 1.7569906e-06 3.4269066e-20)
(0.094433211 1.8664691e-06 5.0628086e-27)
(0.094433022 1.9971571e-06 -4.4205498e-18)
(0.094432838 2.1089945e-06 2.2575033e-18)
(0.094432659 2.2273274e-06 0)
(0.094432485 2.3374176e-06 1.7956e-20)
(0.094432315 2.4481343e-06 1.8111558e-20)
(0.094432151 2.5547813e-06 0)
(0.094431992 2.6602409e-06 0)
(0.09443184 2.7632167e-06 -1.8565322e-20)
(0.094431693 2.8648204e-06 2.3953126e-18)
(0.094431553 2.9644844e-06 -2.4141248e-18)
(0.09443142 3.0628602e-06 -1.9006562e-20)
(0.094431295 3.1597405e-06 -1.2257466e-18)
(0.094431176 3.255311e-06 1.2543611e-18)
(0.094431066 3.3498399e-06 1.2443872e-18)
(0.094430963 3.4432935e-06 -2.5172672e-18)
(0.09443087 3.5356383e-06 1.2631265e-18)
(0.094430784 3.6272319e-06 0)
(0.094430708 3.7180457e-06 2.0032675e-20)
(0.094430639 3.8079585e-06 1.3017855e-18)
(0.09443058 3.8971294e-06 -1.2810579e-18)
(0.094430529 3.9857546e-06 2.0487424e-20)
(0.094430487 4.0745851e-06 0)
(0.094430453 4.1639901e-06 3.2238799e-19)
(0.094430426 4.2539536e-06 4.4883151e-28)
(0.094430406 4.3444396e-06 -4.9628988e-19)
(0.094430391 4.4338654e-06 1.7025106e-19)
(0.094430378 4.5214259e-06 8.5747537e-20)
(0.094430368 4.6072444e-06 -8.5719543e-20)
(0.094430358 4.6927429e-06 3.5094875e-19)
(0.094430353 4.779135e-06 -6.7555713e-19)
(0.094430352 4.8670892e-06 3.352727e-19)
(0.09443036 4.9551696e-06 1.039988e-20)
(0.094430374 5.0451139e-06 0)
(0.094430397 5.1343754e-06 -1.332197e-18)
(0.094430428 5.225464e-06 1.3021114e-18)
(0.094430468 5.3147383e-06 0)
(0.094430516 5.4075516e-06 -1.2831822e-18)
(0.094430573 5.4973215e-06 2.5575881e-18)
(0.094430637 5.5937417e-06 -1.2645022e-18)
(0.094430711 5.6837626e-06 -1.2748312e-18)
(0.094430791 5.7847172e-06 1.2459502e-18)
(0.094430879 5.8749034e-06 -2.492682e-18)
(0.094430974 5.9811995e-06 4.9287303e-18)
(0.094431076 6.0716287e-06 -2.4361132e-18)
(0.094431184 6.1838253e-06 0)
(0.094431299 6.2751763e-06 1.8737408e-20)
(0.094431419 6.3937528e-06 2.3978302e-18)
(0.094431544 6.4867436e-06 -2.3782897e-18)
(0.094431673 6.6123506e-06 2.3401788e-18)
(0.094431808 6.7074506e-06 -2.3201749e-18)
(0.094431945 6.8412474e-06 0)
(0.094432087 6.9390139e-06 -2.2790142e-18)
(0.094432231 7.0818306e-06 2.2577723e-18)
(0.094432378 7.183198e-06 0)
(0.094432528 7.3360828e-06 0)
(0.09443268 7.442091e-06 0)
(0.094432834 7.6061976e-06 -2.2012934e-18)
(0.094432991 7.7184031e-06 4.3200778e-18)
(0.094433149 7.895172e-06 3.3100902e-20)
(0.094433311 8.0150158e-06 -2.1255787e-18)
(0.094433473 8.2098549e-06 0)
(0.094433639 8.3316184e-06 1.9755579e-18)
(0.094433805 8.5795349e-06 -2.9853127e-18)
(0.094433975 8.6477404e-06 6.1938839e-20)
(0.094434141 9.0596342e-06 9.7592259e-19)
(0.094434299 8.9224752e-06 0)
(0.094434423 9.6984807e-06 0)
(0.094549389 1.8022234e-06 4.542109e-19)
(0.094483721 -5.5716644e-07 -4.8791991e-19)
(0.09446086 8.7293408e-07 6.2082717e-20)
(0.094452233 2.2485624e-07 1.0671836e-18)
(0.094448719 7.1939878e-07 -1.0113458e-18)
(0.094447141 6.6490116e-07 0)
(0.094446341 8.8348269e-07 -3.2070371e-20)
(0.094445871 9.682201e-07 0)
(0.09444555 1.1353391e-06 -2.0957592e-18)
(0.094445297 1.2321087e-06 2.0865027e-18)
(0.094445078 1.3823647e-06 0)
(0.094444877 1.4792e-06 -2.2013007e-18)
(0.094444685 1.6131672e-06 -3.4229751e-20)
(0.0944445 1.7126837e-06 4.4267498e-18)
(0.09444432 1.8312607e-06 -2.270387e-18)
(0.094444145 1.9324383e-06 3.5264985e-20)
(0.094443973 2.0396564e-06 2.2423311e-18)
(0.094443806 2.1391153e-06 -2.2983973e-18)
(0.094443642 2.239253e-06 0)
(0.094443484 2.335486e-06 0)
(0.09444333 2.430707e-06 -1.8417175e-20)
(0.094443182 2.5235415e-06 1.8565904e-20)
(0.09444304 2.6151444e-06 -2.3765271e-18)
(0.094442903 2.7048832e-06 2.4138643e-18)
(0.094442773 2.793445e-06 0)
(0.09444265 2.8806542e-06 1.2253806e-18)
(0.094442533 2.966589e-06 -1.2345625e-18)
(0.094442425 3.0515239e-06 1.9433504e-20)
(0.094442324 3.1355629e-06 -1.9577304e-20)
(0.094442231 3.2185178e-06 0)
(0.094442146 3.3007598e-06 -1.986706e-20)
(0.094442069 3.3823293e-06 -2.0013574e-20)
(0.094442001 3.4630937e-06 1.270172e-18)
(0.094441941 3.543219e-06 -1.340524e-18)
(0.09444189 3.6229585e-06 6.3433051e-19)
(0.094441847 3.7028485e-06 -6.59697e-19)
(0.094441812 3.7831936e-06 0)
(0.094441785 3.8638664e-06 -2.0928337e-20)
(0.094441764 3.9449187e-06 1.7924828e-19)
(0.094441747 4.0248406e-06 -1.6999939e-19)
(0.094441733 4.1034674e-06 2.1398181e-20)
(0.094441721 4.1803952e-06 -1.7107344e-19)
(0.094441709 4.2574013e-06 -1.8040459e-19)
(0.094441702 4.3347501e-06 3.3705707e-19)
(0.094441699 4.4140592e-06 0)
(0.094441704 4.4928394e-06 2.0756352e-20)
(0.094441716 4.5740285e-06 0)
(0.094441737 4.6537156e-06 1.9505114e-26)
(0.094441765 4.7361965e-06 2.0306282e-20)
(0.094441802 4.8156063e-06 0)
(0.094441846 4.9000107e-06 1.2809018e-18)
(0.094441899 4.9797218e-06 -2.5433215e-18)
(0.09444196 5.0676736e-06 2.5446674e-18)
(0.094442029 5.1477447e-06 -1.2533132e-18)
(0.094442104 5.2397669e-06 1.9440152e-20)
(0.094442187 5.3203896e-06 -2.4700346e-18)
(0.094442276 5.4168405e-06 -3.7910745e-27)
(0.094442372 5.4982765e-06 4.866415e-18)
(0.094442474 5.5998052e-06 -2.414591e-18)
(0.09444258 5.6825034e-06 2.3957746e-18)
(0.094442692 5.7896547e-06 -2.3581405e-18)
(0.094442809 5.8741085e-06 1.8416726e-20)
(0.094442929 5.9876875e-06 -2.3376163e-18)
(0.094443053 6.0743435e-06 2.3355873e-18)
(0.09444318 6.1953557e-06 -3.5888778e-20)
(0.09444331 6.2848123e-06 2.2757609e-18)
(0.094443442 6.4140411e-06 -2.2892771e-18)
(0.094443576 6.5072382e-06 2.2317082e-18)
(0.094443713 6.6457545e-06 -4.4173289e-18)
(0.094443851 6.7436961e-06 2.1848427e-18)
(0.094443991 6.8926982e-06 2.1601879e-18)
(0.094444132 6.9967785e-06 -4.2692495e-18)
(0.094444275 7.1579433e-06 2.1080738e-18)
(0.094444419 7.2691837e-06 3.2507035e-20)
(0.094444565 7.4493196e-06 0)
(0.094444712 7.5595854e-06 6.3174783e-20)
(0.094444859 7.7974673e-06 9.328661e-19)
(0.094445008 7.8457841e-06 -1.0396928e-18)
(0.094445154 8.269204e-06 -1.0212018e-18)
(0.094445291 8.0743909e-06 1.3551614e-18)
(0.094445395 8.9594228e-06 -4.5174566e-19)
(0.094551626 1.7346993e-06 1.1129681e-19)
(0.094489511 -5.3109942e-07 -1.1971489e-19)
(0.094468816 8.1288072e-07 -6.1085319e-20)
(0.094461323 2.0599552e-07 -6.1888222e-20)
(0.09445837 6.6027386e-07 0)
(0.094457067 6.1250121e-07 -2.0157833e-18)
(0.094456409 8.1111681e-07 1.9732028e-18)
(0.094456015 8.9028333e-07 0)
(0.094455738 1.0421481e-06 0)
(0.094455512 1.1314003e-06 0)
(0.094455312 1.2673085e-06 0)
(0.094455125 1.3562014e-06 2.1300364e-18)
(0.094454945 1.4773609e-06 5.487811e-27)
(0.094454771 1.5678571e-06 -2.211657e-18)
(0.0944546 1.6752686e-06 0)
(0.094454433 1.7667958e-06 -7.050991e-20)
(0.09445427 1.8638773e-06 7.1174922e-20)
(0.09445411 1.9536e-06 -1.7955234e-20)
(0.094453955 2.0440506e-06 0)
(0.094453803 2.1307215e-06 -2.3380577e-18)
(0.094453656 2.2165538e-06 2.3757237e-18)
(0.094453513 2.3001101e-06 0)
(0.094453376 2.3825842e-06 -1.8709638e-20)
(0.094453244 2.4632404e-06 0)
(0.094453118 2.5428576e-06 -2.4504531e-18)
(0.094452998 2.6212255e-06 2.4495717e-18)
(0.094452885 2.698445e-06 -1.2338122e-18)
(0.094452779 2.7746622e-06 -3.8838505e-20)
(0.094452681 2.8500856e-06 1.251869e-18)
(0.094452589 2.9245319e-06 -1.9702257e-20)
(0.094452506 2.9983595e-06 -1.2502354e-18)
(0.09445243 3.0714867e-06 1.2593055e-18)
(0.094452364 3.1440337e-06 1.2886044e-18)
(0.094452305 3.2160063e-06 -1.2777442e-18)
(0.094452254 3.2877249e-06 0)
(0.094452212 3.3594209e-06 -6.3804607e-19)
(0.094452177 3.4314894e-06 6.6354328e-19)
(0.094452149 3.5036563e-06 3.5515926e-19)
(0.094452128 3.5760958e-06 -5.2625445e-19)
(0.09445211 3.6473857e-06 8.4844482e-20)
(0.094452096 3.7179745e-06 6.4057596e-20)
(0.094452082 3.7866979e-06 0)
(0.09445207 3.8562045e-06 3.3875628e-19)
(0.094452061 3.9252104e-06 -3.3623817e-19)
(0.094452058 3.9970196e-06 -6.8837694e-19)
(0.09445206 4.0670972e-06 1.3045578e-18)
(0.094452071 4.1405837e-06 -6.3726249e-19)
(0.094452089 4.211388e-06 2.0408529e-20)
(0.094452116 4.2861857e-06 -1.3170352e-18)
(0.09445215 4.3566088e-06 1.2875081e-18)
(0.094452193 4.433505e-06 1.2983085e-18)
(0.094452242 4.5042892e-06 -2.5186376e-18)
(0.0944523 4.5842036e-06 1.2404988e-18)
(0.094452364 4.6556461e-06 -1.9549638e-20)
(0.094452436 4.738979e-06 0)
(0.094452514 4.8112706e-06 -1.9268175e-20)
(0.094452599 4.898423e-06 1.9126762e-20)
(0.094452688 4.971841e-06 -2.4299982e-18)
(0.094452784 5.0634245e-06 -1.8840522e-20)
(0.094452883 5.138225e-06 2.3929364e-18)
(0.094452988 5.2349115e-06 -3.7093537e-20)
(0.094453096 5.3115381e-06 1.8395882e-20)
(0.094453209 5.4140931e-06 0)
(0.094453323 5.492944e-06 -5.4250845e-20)
(0.094453441 5.6022643e-06 7.1684638e-20)
(0.094453561 5.6840177e-06 -3.5507463e-20)
(0.094453683 5.8008302e-06 3.516155e-20)
(0.094453806 5.8863623e-06 -2.2622073e-18)
(0.094453931 6.0117396e-06 2.2036063e-18)
(0.094454057 6.1020513e-06 -2.2128833e-18)
(0.094454185 6.2371933e-06 2.1866608e-18)
(0.094454313 6.333529e-06 -3.3219459e-20)
(0.094454442 6.4803057e-06 -2.1305779e-18)
(0.094454572 6.5833458e-06 2.0358486e-18)
(0.094454703 6.7493506e-06 0)
(0.094454834 6.8496808e-06 -6.2629319e-20)
(0.094454966 7.0747098e-06 1.2308768e-19)
(0.094455097 7.1102667e-06 0)
(0.094455227 7.5292591e-06 5.9167437e-20)
(0.094455347 7.304673e-06 5.7857617e-20)
(0.094455435 8.2392701e-06 -1.1062455e-19)
(0.094553381 1.6179964e-06 -1.0910282e-19)
(0.094494685 -4.8997281e-07 1.1750757e-19)
(0.09447606 7.3943858e-07 -1.2020831e-19)
(0.094469611 1.9133795e-07 0)
(0.094467154 5.9990255e-07 6.1691754e-20)
(0.094466091 5.6276957e-07 1.9339209e-18)
(0.094465552 7.4140714e-07 -3.9802673e-18)
(0.094465223 8.1594437e-07 -6.4287838e-27)
(0.094464982 9.5355486e-07 2.013136e-18)
(0.09446478 1.035825e-06 2.10637e-18)
(0.094464597 1.1584178e-06 -2.1338393e-18)
(0.094464424 1.2400586e-06 6.7508327e-20)
(0.094464256 1.3491917e-06 3.4150085e-20)
(0.094464092 1.4313883e-06 2.2444116e-18)
(0.094463931 1.5284039e-06 -2.2331786e-18)
(0.094463774 1.6108805e-06 3.5243235e-20)
(0.094463619 1.6986072e-06 -2.2771359e-18)
(0.094463468 1.7792947e-06 2.2979754e-18)
(0.09446332 1.8609217e-06 0)
(0.094463176 1.9388208e-06 -1.8264054e-20)
(0.094463036 2.0161352e-06 0)
(0.0944629 2.0911802e-06 -1.8559983e-20)
(0.094462769 2.1653289e-06 1.8703702e-20)
(0.094462643 2.2377268e-06 0)
(0.094462522 2.3091685e-06 1.4885484e-26)
(0.094462407 2.3793949e-06 -1.2239515e-18)
(0.094462298 2.4486734e-06 -1.9262502e-20)
(0.094462196 2.5169058e-06 1.2610367e-18)
(0.094462101 2.5845045e-06 1.5324026e-26)
(0.094462012 2.6511579e-06 1.9677712e-20)
(0.094461932 2.7172569e-06 1.9817529e-20)
(0.094461858 2.7827234e-06 -1.2573961e-18)
(0.094461793 2.8478183e-06 1.3065916e-18)
(0.094461736 2.9123112e-06 0)
(0.094461687 2.9767029e-06 -6.321767e-19)
(0.094461645 3.040794e-06 1.2941398e-18)
(0.094461612 3.1053661e-06 -1.0139828e-18)
(0.094461584 3.1696307e-06 3.1271714e-19)
(0.094461563 3.2343024e-06 0)
(0.094461546 3.297623e-06 0)
(0.094461532 3.3610865e-06 0)
(0.094461518 3.42205e-06 0)
(0.094461505 3.4850695e-06 2.1113787e-20)
(0.094461495 3.5462817e-06 3.353152e-19)
(0.094461491 3.6114402e-06 -9.7775611e-19)
(0.094461493 3.6734629e-06 6.4021406e-19)
(0.094461503 3.7399887e-06 -6.971122e-19)
(0.09446152 3.8025956e-06 1.9542573e-18)
(0.094461545 3.8703576e-06 2.0212486e-20)
(0.094461577 3.9327645e-06 -1.2844792e-18)
(0.094461617 4.0024767e-06 -1.9929057e-20)
(0.094461664 4.0653633e-06 -1.9789374e-20)
(0.094461719 4.1376745e-06 0)
(0.09446178 4.2013606e-06 1.9512384e-20)
(0.094461848 4.2766166e-06 1.93743e-20)
(0.094461922 4.3412987e-06 1.9235977e-20)
(0.094462002 4.4198535e-06 -1.9096928e-20)
(0.094462086 4.4858832e-06 0)
(0.094462176 4.5683188e-06 1.8814789e-20)
(0.09446227 4.6358754e-06 0)
(0.094462368 4.7229194e-06 1.8523852e-20)
(0.094462469 4.7923451e-06 -1.8373708e-20)
(0.094462574 4.8846631e-06 -2.3685555e-18)
(0.09446268 4.9564541e-06 2.3479413e-18)
(0.09446279 5.0548325e-06 -3.5794702e-20)
(0.094462901 5.1295504e-06 3.5455494e-20)
(0.094463014 5.2348135e-06 0)
(0.094463127 5.3132566e-06 3.4735991e-20)
(0.094463243 5.4264483e-06 2.1985706e-18)
(0.094463358 5.5095708e-06 -4.3457511e-18)
(0.094463475 5.6319011e-06 2.1459094e-18)
(0.094463592 5.7208495e-06 0)
(0.09446371 5.8543363e-06 -2.0876226e-18)
(0.094463828 5.9494787e-06 1.9917516e-18)
(0.094463947 6.1019581e-06 -6.3203097e-20)
(0.094464065 6.1936504e-06 6.2091083e-20)
(0.094464183 6.4036151e-06 -6.0906621e-20)
(0.0944643 6.4323532e-06 -1.0138996e-18)
(0.094464416 6.833786e-06 1.7485409e-18)
(0.094464523 6.6027279e-06 -9.0919836e-19)
(0.094464599 7.5363383e-06 1.0838268e-19)
(0.094554652 1.4655115e-06 4.278781e-19)
(0.094499289 -4.3877722e-07 -5.7677755e-19)
(0.094482648 6.562898e-07 -8.2794712e-19)
(0.094477155 1.7903176e-07 -9.624088e-19)
(0.094475136 5.3851744e-07 3.9012475e-18)
(0.094474276 5.1448483e-07 6.1794205e-20)
(0.094473839 6.7348169e-07 -2.069812e-18)
(0.094473562 7.4417996e-07 0)
(0.094473354 8.6802073e-07 -1.9402122e-18)
(0.094473172 9.4404588e-07 2.0999141e-18)
(0.094473005 1.0540571e-06 2.1289899e-18)
(0.094472844 1.128918e-06 -4.380753e-18)
(0.094472688 1.2269598e-06 2.1488967e-18)
(0.094472534 1.301447e-06 -2.2425445e-18)
(0.094472385 1.3888723e-06 2.1970354e-18)
(0.094472236 1.4630155e-06 0)
(0.094472092 1.5421438e-06 -3.5570828e-20)
(0.094471949 1.6144645e-06 2.2975089e-18)
(0.09447181 1.6879278e-06 -4.6354651e-18)
(0.094471674 1.7576904e-06 2.3555587e-18)
(0.094471542 1.8271366e-06 2.3747083e-18)
(0.094471413 1.8942486e-06 1.855331e-20)
(0.094471289 1.9607281e-06 -2.4303401e-18)
(0.094471169 2.0254189e-06 -1.8834073e-20)
(0.094471055 2.0894119e-06 -2.4283327e-18)
(0.094470945 2.1521195e-06 1.2228665e-18)
(0.094470842 2.2141463e-06 1.2315153e-18)
(0.094470743 2.2750736e-06 0)
(0.094470653 2.3355287e-06 1.3805478e-26)
(0.094470568 2.3950432e-06 0)
(0.094470491 2.4542208e-06 -1.9784419e-20)
(0.09447042 2.5125876e-06 -1.2949549e-18)
(0.094470358 2.5709105e-06 -2.006208e-20)
(0.094470303 2.6284304e-06 1.2728414e-18)
(0.094470256 2.6861277e-06 -2.034791e-20)
(0.094470216 2.7430919e-06 6.5582529e-19)
(0.094470184 2.8007997e-06 -6.3996246e-19)
(0.094470158 2.857641e-06 -3.1194442e-19)
(0.094470138 2.915383e-06 3.3522705e-19)
(0.094470121 2.9712434e-06 -2.1110197e-20)
(0.094470108 3.0284264e-06 8.4955516e-20)
(0.094470093 3.0821759e-06 -8.4827851e-20)
(0.094470081 3.1396281e-06 -2.1048225e-20)
(0.094470071 3.193833e-06 3.3428135e-19)
(0.094470067 3.2526649e-06 -3.3184005e-19)
(0.094470069 3.3075e-06 -6.177106e-19)
(0.094470078 3.3673692e-06 1.3288257e-18)
(0.094470093 3.4227808e-06 6.4957299e-19)
(0.094470118 3.4837432e-06 -1.3303725e-18)
(0.094470148 3.5391734e-06 -2.0017194e-20)
(0.094470187 3.6019134e-06 0)
(0.094470231 3.6578997e-06 0)
(0.094470284 3.7228746e-06 -1.2744041e-18)
(0.094470341 3.7797489e-06 1.2266676e-18)
(0.094470406 3.8472942e-06 -1.3725442e-26)
(0.094470476 3.905161e-06 0)
(0.094470552 3.9757291e-06 0)
(0.094470631 4.0349484e-06 -2.4225521e-18)
(0.094470716 4.1089845e-06 2.404678e-18)
(0.094470804 4.1697768e-06 0)
(0.094470896 4.2479747e-06 1.8499078e-20)
(0.09447099 4.3106588e-06 2.3487977e-18)
(0.094471088 4.393588e-06 7.2785594e-20)
(0.094471188 4.4586697e-06 -2.3448873e-18)
(0.09447129 4.5470976e-06 3.5745628e-20)
(0.094471393 4.6150827e-06 0)
(0.094471498 4.7098006e-06 0)
(0.094471603 4.7814303e-06 0)
(0.09447171 4.8834863e-06 -3.4274109e-20)
(0.094471817 4.9596306e-06 2.4091422e-26)
(0.094471924 5.0702844e-06 -2.1388437e-18)
(0.094472032 5.1519112e-06 2.0761433e-18)
(0.09447214 5.273304e-06 6.4922799e-20)
(0.094472247 5.3605919e-06 6.3873568e-20)
(0.094472356 5.5001943e-06 -1.8826479e-18)
(0.094472463 5.5843168e-06 1.9699053e-18)
(0.09447257 5.777497e-06 9.0418462e-19)
(0.094472676 5.8041499e-06 -1.8260085e-18)
(0.09447278 6.1777363e-06 1.1484391e-18)
(0.094472876 5.9585559e-06 -1.1164199e-19)
(0.094472943 6.8514175e-06 1.0620885e-19)
(0.09455543 1.2890457e-06 0)
(0.094503359 -3.8163644e-07 1.1325664e-19)
(0.094488619 5.6724039e-07 1.1637943e-19)