/*--------------------------------*- C++ -*----------------------------------*\
| =========                 |                                                 |
| \\      /  F ield         | OpenFOAM: The Open Source CFD Toolbox           |
|  \\    /   O peration     | Version:  v2006                                 |
|   \\  /    A nd           | Website:  www.openfoam.com                      |
|    \\/     M anipulation  |                                                 |
\*---------------------------------------------------------------------------*/
FoamFile
{
    version     2.0;
    format      ascii;
    class       volVectorField;
    location    "10000";
    object      wallShearStress;
}
// * * * * * * * * * * * * * * * * * * * * * * * * * * * * * * * * * * * * * //

dimensions      [1 -1 -2 0 0 0 0];


internalField   uniform (0 0 0);

boundaryField
{
    Side
    {
        type            empty;
    }
    Ground
    {
        type            calculated;
        value           uniform (0 0 0);
    }
    Inlet
    {
        type            calculated;
        value           uniform (0 0 0);
    }
    Airfoil
    {
        type            calculated;
        value           nonuniform List<vector> 
646
(
(-1.9504449e-07 -9.7897813e-07 -2.0934e-20)
(9.6965381e-07 4.6168395e-07 -2.5488117e-20)
(4.635554e-06 1.2791456e-06 -1.3013329e-20)
(2.9256957e-06 7.5748877e-07 -1.3244249e-20)
(3.7687931e-06 1.0144951e-06 -1.3449125e-20)
(3.4684576e-06 9.8828488e-07 0)
(3.7594788e-06 1.0630741e-06 -1.3803242e-20)
(3.5656e-06 9.9859566e-07 -3.4106109e-24)
(3.4824284e-06 9.4578996e-07 1.7219156e-41)
(3.3161144e-06 8.9897718e-07 -6.978131e-24)
(3.2960756e-06 8.878867e-07 -2.8893807e-20)
(3.2349082e-06 8.7037627e-07 -1.4570345e-20)
(3.2603691e-06 8.738084e-07 -1.4714265e-20)
(3.2319474e-06 8.5033725e-07 -7.2529217e-24)
(3.2436647e-06 8.4970583e-07 1.4985006e-20)
(3.2382518e-06 8.2827262e-07 6.7003178e-37)
(3.2313142e-06 8.2393897e-07 8.8162076e-39)
(3.2467121e-06 8.1709483e-07 -7.6746481e-21)
(3.251233e-06 8.1477465e-07 7.733504e-21)
(3.2696571e-06 8.1222451e-07 7.7925039e-21)
(3.2730089e-06 8.0733019e-07 -6.8876622e-41)
(3.2959555e-06 8.0913475e-07 7.9067176e-21)
(3.3003975e-06 7.9803707e-07 1.5551713e-23)
(3.3053707e-06 7.9702426e-07 -8.018233e-21)
(3.3272739e-06 7.9207364e-07 8.0418916e-21)
(3.3206973e-06 7.8139836e-07 -8.0951429e-21)
(3.3419786e-06 7.8322586e-07 8.1488542e-21)
(3.3517949e-06 7.6997186e-07 3.2160451e-23)
(3.3410516e-06 7.6120671e-07 -1.6185498e-23)
(3.3669498e-06 7.6343078e-07 -8.3455304e-21)
(3.3709776e-06 7.4833393e-07 1.1754944e-38)
(3.3615309e-06 7.4141392e-07 -1.6500148e-23)
(3.3829901e-06 7.4249228e-07 1.7014299e-20)
(3.3870458e-06 7.299936e-07 -8.5651905e-21)
(3.3789365e-06 7.2265631e-07 -8.5639067e-21)
(3.3911581e-06 7.2171692e-07 -8.6735378e-21)
(3.3956183e-06 7.1337429e-07 8.7089718e-21)
(3.3911716e-06 7.0423623e-07 -8.7568579e-21)
(3.3896548e-06 7.0072012e-07 1.7195442e-23)
(3.4038736e-06 6.9743951e-07 -1.7288832e-23)
(3.3917622e-06 6.8121315e-07 -4.7019774e-38)
(3.3885246e-06 6.7658461e-07 -1.7924181e-20)
(3.3919708e-06 6.7328674e-07 3.1738347e-37)
(3.3946427e-06 6.5872915e-07 -1.7683622e-23)
(3.3730614e-06 6.4459647e-07 -9.0891768e-21)
(3.3743532e-06 6.3937548e-07 9.1462274e-21)
(3.3736215e-06 6.3466246e-07 3.6915536e-28)
(3.3665049e-06 6.0832078e-07 1.8072523e-23)
(3.3413356e-06 5.9776546e-07 9.3058722e-21)
(3.3431412e-06 5.914472e-07 -2.9387359e-39)
(3.3342942e-06 5.8391178e-07 -1.7632415e-38)
(3.3190831e-06 5.545203e-07 -9.4495025e-21)
(3.2977347e-06 5.4563112e-07 -9.5082629e-21)
(3.2904236e-06 5.3717996e-07 -6.6121557e-37)
(3.276305e-06 5.2846178e-07 0)
(3.2508306e-06 4.9964919e-07 1.6721407e-36)
(3.23502e-06 4.9055428e-07 9.6933662e-21)
(3.2130634e-06 4.7930496e-07 1.9051315e-23)
(3.1969802e-06 4.6922032e-07 -1.9132299e-23)
(3.155919e-06 4.4246793e-07 1.9247867e-23)
(3.1437244e-06 4.2958096e-07 4.9530952e-21)
(3.1022295e-06 4.1478897e-07 4.9734656e-21)
(3.0872166e-06 4.0224722e-07 1.0938475e-27)
(3.0219063e-06 3.7587395e-07 2.8025969e-45)
(3.0041488e-06 3.5408546e-07 1.3224311e-38)
(2.9481567e-06 3.3741154e-07 -1.0139949e-20)
(2.9249176e-06 3.2112942e-07 5.1052547e-21)
(2.858725e-06 3.0180849e-07 -4.3493291e-37)
(2.7619552e-06 2.5726639e-07 1.0290258e-20)
(2.7599509e-06 2.4212553e-07 -1.7632415e-38)
(2.6750356e-06 2.1671189e-07 -2.0316219e-23)
(2.6446503e-06 1.9635682e-07 4.0787797e-23)
(2.510205e-06 1.59428e-07 -4.1040759e-23)
(2.4265369e-06 1.2173528e-07 5.2775345e-21)
(2.3904913e-06 1.0040293e-07 5.3174561e-21)
(2.3082785e-06 7.5321416e-08 -5.8852778e-37)
(2.2321183e-06 4.8682182e-08 5.3328295e-21)
(2.0596346e-06 9.7165692e-09 5.394424e-21)
(1.9767652e-06 -2.5924288e-08 -2.1112142e-23)
(1.906998e-06 -5.3685835e-08 -5.4093547e-21)
(1.8131219e-06 -8.2198851e-08 -5.4499038e-21)
(1.6954886e-06 -1.1045027e-07 1.0101905e-39)
(1.4936061e-06 -1.5021708e-07 -5.5080329e-21)
(1.3819811e-06 -1.863163e-07 5.5273204e-21)
(1.2926983e-06 -2.1860491e-07 1.4693679e-39)
(1.1641516e-06 -2.5828235e-07 0)
(1.0220351e-06 -2.9944384e-07 5.6046849e-21)
(7.4746002e-07 -3.4955836e-07 1.4693679e-38)
(5.4277916e-07 -3.9061375e-07 -5.6639964e-21)
(4.7582795e-07 -4.2846827e-07 -8.0815237e-39)
(2.3521809e-07 -4.7610111e-07 -9.8447652e-38)
(1.412333e-07 -5.2743396e-07 5.7423839e-21)
(-3.2020297e-07 -6.0211249e-07 -5.7839195e-21)
(-7.3033418e-07 -6.7531854e-07 2.2653779e-23)
(-7.4058474e-07 -7.1850393e-07 -5.8205819e-21)
(-1.0418987e-06 -7.8162695e-07 5.8774718e-39)
(-1.1868553e-06 -8.4452216e-07 0)
(-1.662114e-06 -9.2627948e-07 0)
(-2.3001708e-06 -1.0014695e-06 -3.6734198e-40)
(-2.528323e-06 -1.0579803e-06 -2.9769728e-21)
(-2.6767215e-06 -1.1184025e-06 -3.6734198e-39)
(-3.0335455e-06 -1.1810177e-06 1.568961e-39)
(-3.176572e-06 -1.2627945e-06 1.3631831e-39)
(-4.0044796e-06 -1.3425961e-06 -2.3624531e-23)
(-4.6978933e-06 -1.3957385e-06 2.372768e-23)
(-4.6892652e-06 -1.4610321e-06 -6.132398e-21)
(-5.0401728e-06 -1.5287878e-06 2.3936323e-23)
(-5.3469469e-06 -1.6029126e-06 3.0541332e-21)
(-5.7336777e-06 -1.6939798e-06 2.417116e-23)
(-6.6034716e-06 -1.7646522e-06 2.4239855e-23)
(-7.1868642e-06 -1.8168034e-06 3.0699962e-21)
(-7.3078703e-06 -1.8940708e-06 2.4480972e-23)
(-7.7024629e-06 -1.9691043e-06 -3.1430731e-21)
(-8.0580589e-06 -2.0565769e-06 -3.1856303e-21)
(-8.5943708e-06 -2.1573123e-06 3.1985099e-21)
(-9.621123e-06 -2.2197818e-06 3.1826851e-21)
(-1.0229025e-05 -2.2698753e-06 -3.2274079e-21)
(-1.040061e-05 -2.3595169e-06 -3.1893253e-21)
(-1.0840344e-05 -2.4439315e-06 1.8367099e-39)
(-1.1270496e-05 -2.5430718e-06 -1.7482322e-37)
(-1.1863393e-05 -2.6644985e-06 -2.5434445e-23)
(-1.3235025e-05 -2.7148279e-06 3.2909944e-21)
(-1.4056704e-05 -2.7382236e-06 3.2869642e-21)
(-1.4151051e-05 -2.841408e-06 -3.323153e-21)
(-1.4614028e-05 -2.931212e-06 2.5859756e-23)
(-1.514083e-05 -3.0253165e-06 6.6605158e-21)
(-1.5511901e-05 -3.1864404e-06 -1.9028315e-37)
(-1.734226e-05 -3.2308931e-06 -3.3521087e-21)
(-1.8661378e-05 -3.1755232e-06 1.6300801e-39)
(-1.8520433e-05 -3.3044428e-06 -3.3825577e-21)
(-1.9020152e-05 -3.3913722e-06 3.3844945e-21)
(-1.9522466e-05 -3.4865995e-06 -3.4165687e-21)
(-1.9929127e-05 -3.6420307e-06 -3.4273305e-21)
(-2.1450151e-05 -3.7181969e-06 -3.4283495e-21)
(-2.3176791e-05 -3.6476813e-06 3.4726111e-21)
(-2.3520452e-05 -3.7083929e-06 -1.3557326e-23)
(-2.3796695e-05 -3.8132029e-06 1.2111254e-39)
(-2.4283029e-05 -3.909716e-06 -1.3693488e-23)
(-2.4838139e-05 -4.0219145e-06 3.5309105e-21)
(-2.5490076e-05 -4.1911003e-06 1.3799824e-23)
(-2.7675559e-05 -4.1617067e-06 1.7610259e-21)
(-2.9045637e-05 -4.0487247e-06 -1.7807515e-21)
(-2.8903697e-05 -4.2002924e-06 6.7590925e-38)
(-2.9428866e-05 -4.2867243e-06 1.4054432e-23)
(-2.9959588e-05 -4.3864452e-06 -2.0704208e-27)
(-3.0486352e-05 -4.5361099e-06 3.6145557e-21)
(-3.1831053e-05 -4.6305863e-06 -4.0407618e-39)
(-3.3892008e-05 -4.5254437e-06 -9.6427271e-38)
(-3.4680607e-05 -4.5074168e-06 1.8231322e-21)
(-3.4817855e-05 -4.6383203e-06 1.4431075e-23)
(-3.5362284e-05 -4.7300665e-06 1.8389862e-21)
(-3.5965702e-05 -4.8306626e-06 1.8770881e-21)
(-3.6507244e-05 -4.9976469e-06 -1.8724136e-21)
(-3.8193562e-05 -5.0424367e-06 -3.0090074e-27)
(-4.0107146e-05 -4.9078175e-06 2.2958874e-41)
(-4.0602612e-05 -4.9579812e-06 -1.4819046e-23)
(-4.0947138e-05 -5.0752454e-06 1.9186983e-21)
(-4.1544637e-05 -5.1718e-06 3.6734198e-39)
(-4.2210457e-05 -5.2767082e-06 1.5026925e-23)
(-4.281431e-05 -5.448758e-06 -1.508179e-23)
(-4.4594085e-05 -5.4827875e-06 1.5130512e-23)
(-4.6507571e-05 -5.3439875e-06 -2.1503094e-27)
(-4.7008408e-05 -5.4105024e-06 1.9409135e-21)
(-4.7434691e-05 -5.5327545e-06 -1.5338606e-23)
(-4.8086366e-05 -5.6388008e-06 -1.960606e-21)
(-4.8809459e-05 -5.755977e-06 -3.34444e-27)
(-4.9464906e-05 -5.9596643e-06 3.9824056e-21)
(-5.1577229e-05 -6.0029116e-06 -1.5631269e-23)
(-5.4318042e-05 -5.7443823e-06 4.0202944e-21)
(-5.5056794e-05 -5.7213215e-06 2.033536e-21)
(-5.5179557e-05 -5.8825902e-06 1.5840488e-23)
(-5.5780372e-05 -5.9912469e-06 -1.5934924e-23)
(-5.6463562e-05 -6.1172792e-06 -3.5253599e-27)
(-5.7144886e-05 -6.3236512e-06 -2.0550814e-21)
(-5.8887569e-05 -6.5033561e-06 2.0678074e-21)
(-6.3317299e-05 -6.0803285e-06 2.0574484e-21)
(-6.520079e-05 -5.6882046e-06 1.05713e-21)
(-6.4419395e-05 -5.9665707e-06 3.0718973e-38)
(-6.4857968e-05 -6.0562335e-06 1.6442153e-23)
(-6.5371114e-05 -6.1740766e-06 -1.0731322e-21)
(-6.6075811e-05 -6.3040208e-06 -9.4912344e-38)
(-6.6300384e-05 -6.7288547e-06 -1.0678704e-21)
(-7.163223e-05 -6.3551065e-06 -3.2142424e-40)
(-7.5655906e-05 -5.4616001e-06 -3.1820999e-38)
(-7.440616e-05 -5.7472852e-06 -1.0809392e-21)
(-7.4497087e-05 -5.8437946e-06 1.086712e-21)
(-7.4818138e-05 -5.9371963e-06 -1.7051129e-23)
(-7.5383769e-05 -6.0338926e-06 -1.095946e-21)
(-7.5960652e-05 -6.2047671e-06 2.8856677e-27)
(-7.7623281e-05 -6.3023853e-06 2.2321185e-21)
(-8.1352837e-05 -5.8876845e-06 3.6734198e-39)
(-8.2850731e-05 -5.5643512e-06 -1.1168859e-21)
(-8.231861e-05 -5.7875429e-06 1.1237132e-21)
(-8.2817126e-05 -5.8448913e-06 -1.1199042e-21)
(-8.3372716e-05 -5.9209775e-06 1.1248e-21)
(-8.4053075e-05 -5.9976908e-06 -1.1488252e-21)
(-8.472999e-05 -6.1153829e-06 8.9557121e-24)
(-8.6181649e-05 -6.1291727e-06 1.1509253e-21)
(-8.7803873e-05 -6.0118319e-06 -2.7550649e-40)
(-8.8438995e-05 -6.0479388e-06 1.4234815e-27)
(-8.8908843e-05 -6.1530171e-06 2.9387359e-39)
(-8.9574218e-05 -6.2395362e-06 2.3393853e-21)
(-9.0271965e-05 -6.3369884e-06 9.2162967e-24)
(-9.0971622e-05 -6.4615367e-06 -9.2667167e-24)
(-9.1482424e-05 -6.7514232e-06 1.9615428e-27)
(-9.5470269e-05 -6.5250548e-06 1.4909206e-27)
(-9.8906538e-05 -5.8846761e-06 2.4137776e-21)
(-9.827445e-05 -6.0213923e-06 -6.0430564e-22)
(-9.7960318e-05 -6.1869735e-06 1.2257763e-21)
(-9.7967125e-05 -6.3367039e-06 -6.2064452e-22)
(-9.8032273e-05 -6.5371801e-06 -1.2280815e-21)
(-9.8306956e-05 -6.8251203e-06 -6.1697652e-22)
(-9.8366091e-05 -7.692589e-06 6.2054486e-22)
(-0.00011267768 -6.461522e-06 1.9446166e-38)
(-0.00012369175 -3.2705522e-06 9.3270426e-42)
(-0.00011866693 -3.6219163e-06 -9.7919332e-24)
(-0.00011533028 -3.9916528e-06 9.8535946e-24)
(-0.00011344898 -4.2133498e-06 -3.175083e-22)
(-0.00011210233 -4.4789946e-06 -3.2918859e-22)
(-0.00011158391 -4.7951057e-06 -3.1084888e-22)
(-0.0001094936 -6.2061068e-06 -9.0572758e-39)
(-0.00012976446 -4.3402918e-06 3.9539486e-38)
(-0.00015180664 1.97355e-06 1.009365e-23)
(-0.00014580654 2.7253279e-06 -1.013838e-23)
(-0.00013610271 1.4918041e-06 -1.634038e-22)
(-0.00013181443 1.1731594e-06 1.6450979e-22)
(-0.00012831447 7.653461e-07 1.5518218e-22)
(-0.00012573994 3.579681e-07 1.0422382e-23)
(-0.00012284409 -8.0404146e-07 -1.6765755e-22)
(-0.0001339271 -1.6357954e-07 -1.6756583e-22)
(-0.00016480256 6.8691643e-06 1.0452126e-23)
(-0.00016855418 1.1830606e-05 6.1927495e-27)
(-0.00015080165 8.7067295e-06 -2.1165666e-23)
(-0.0001458426 8.3988395e-06 -6.7273438e-22)
(-0.00014074278 7.7868832e-06 0)
(-0.0001369004 7.2819289e-06 -4.5917748e-41)
(-0.00013324821 6.6467049e-06 -6.8618999e-22)
(-0.00012861234 4.901237e-06 -7.2194229e-22)
(-0.00015804235 9.943398e-06 1.0880536e-23)
(-0.00017296862 1.8149781e-05 1.4004825e-21)
(-0.00015388798 1.4676958e-05 -3.4256187e-27)
(-0.00014760881 1.4022956e-05 1.4228393e-21)
(-0.00014134398 1.3114063e-05 1.1200852e-23)
(-0.00013680662 1.2473482e-05 -2.2560878e-23)
(-0.00013285076 1.176566e-05 2.9075494e-21)
(-0.00012870275 1.0606972e-05 1.142642e-23)
(-0.0001385428 1.1717925e-05 -1.4593197e-21)
(-0.00017200416 2.0582217e-05 5.6766037e-24)
(-0.00017575325 2.6706001e-05 -5.6974338e-24)
(-0.00015379111 2.1967248e-05 1.4740308e-21)
(-0.00014751486 2.1175317e-05 1.8367099e-39)
(-0.00014047314 1.9911088e-05 7.3468397e-40)
(-0.00013532335 1.9010031e-05 -1.5186824e-21)
(-0.00013120165 1.818978e-05 -7.9092701e-28)
(-0.00012684374 1.7035317e-05 5.9847136e-24)
(-0.00014145177 1.9997078e-05 3.0506432e-21)
(-0.00016332074 2.7883917e-05 -7.7876501e-38)
(-0.00015818493 2.9689506e-05 5.9928872e-24)
(-0.00014333335 2.635885e-05 -1.5561022e-21)
(-0.00013724567 2.5258173e-05 -6.1149568e-24)
(-0.00013124824 2.4023071e-05 1.5845146e-21)
(-0.00012656782 2.3070426e-05 -1.5909212e-21)
(-0.00012272615 2.2231944e-05 -1.6029055e-21)
(-0.00011909658 2.1376571e-05 3.1591411e-38)
(-0.00012791723 2.3453369e-05 6.285906e-24)
(-0.0001424134 2.8801566e-05 -6.2871165e-24)
(-0.00013858181 2.9922213e-05 -1.6134144e-21)
(-0.00012698955 2.7162988e-05 1.8089237e-27)
(-0.00012201626 2.6123368e-05 -6.4536153e-24)
(-0.0001169736 2.4971874e-05 -1.6598366e-21)
(-0.00011297901 2.4067929e-05 -1.686387e-21)
(-0.00010971094 2.3294574e-05 1.6926863e-21)
(-0.0001072391 2.26938e-05 -1.7035738e-21)
(-0.00011114404 2.3766765e-05 -6.6417175e-24)
(-0.00013132318 2.9705576e-05 6.6017123e-24)
(-0.0001337354 3.3586541e-05 -1.6932842e-21)
(-0.00011782531 2.9414897e-05 -1.7207086e-21)
(-0.00011351838 2.8437692e-05 -6.7959553e-24)
(-0.00010817419 2.7065133e-05 -1.7559121e-21)
(-0.00010429826 2.6106065e-05 0)
(-0.00010094724 2.5239674e-05 3.5710348e-21)
(-9.8505026e-05 2.4579139e-05 0)
(-9.6499698e-05 2.4261754e-05 -3.6157855e-21)
(-0.00011020255 2.7921808e-05 -1.5646348e-27)
(-0.0001186081 3.2478983e-05 7.0386452e-24)
(-0.00010955871 3.0928908e-05 1.8149592e-21)
(-0.00010304873 2.9159734e-05 0)
(-9.8604506e-05 2.7926923e-05 -3.709274e-21)
(-9.4843973e-05 2.6870428e-05 -1.8717089e-21)
(-9.1698288e-05 2.5989494e-05 7.3750429e-24)
(-8.9194133e-05 2.5296734e-05 1.8956452e-21)
(-8.7410673e-05 2.4808796e-05 7.4892919e-24)
(-8.6438098e-05 2.4815075e-05 2.0101953e-28)
(-0.00010001242 2.8333192e-05 1.8959229e-21)
(-0.00010415437 3.1992924e-05 1.9161347e-21)
(-9.2075342e-05 2.8551041e-05 -1.9451858e-21)
(-8.9255232e-05 2.7738614e-05 3.8358865e-24)
(-8.5385123e-05 2.6569594e-05 1.9828048e-21)
(-8.2648112e-05 2.5746466e-05 2.0006448e-21)
(-8.0242469e-05 2.5032134e-05 -2.0175135e-21)
(-7.8480663e-05 2.4524452e-05 -2.0333978e-21)
(-7.7429874e-05 2.4267747e-05 -2.0465045e-21)
(-7.7378771e-05 2.4648403e-05 2.9387359e-39)
(-9.142045e-05 2.8482237e-05 3.9478255e-24)
(-9.606032e-05 3.2364154e-05 2.0318373e-21)
(-8.4494744e-05 2.898737e-05 2.0656365e-21)
(-8.1682762e-05 2.8076327e-05 -2.0922049e-21)
(-7.8037036e-05 2.6882553e-05 2.1135545e-21)
(-7.5446445e-05 2.6027197e-05 2.133722e-21)
(-7.3126127e-05 2.5269951e-05 9.1835496e-41)
(-7.130444e-05 2.4685022e-05 2.1709929e-21)
(-6.9987039e-05 2.4288664e-05 -1.9101783e-37)
(-6.9487464e-05 2.4342311e-05 -2.1966028e-21)
(-7.4164706e-05 2.5923627e-05 -4.3832134e-21)
(-7.8275047e-05 2.791696e-05 4.2993317e-24)
(-7.5384674e-05 2.756027e-05 2.2123616e-21)
(-7.098287e-05 2.6117223e-05 4.3815565e-24)
(-6.8753968e-05 2.5332183e-05 2.2718903e-21)
(-6.6546288e-05 2.4562553e-05 -2.2372466e-24)
(-6.4742957e-05 2.3936604e-05 -2.9387359e-39)
(-6.321011e-05 2.3413005e-05 -2.331308e-21)
(-6.2025224e-05 2.3024861e-05 -2.3523207e-21)
(-6.1397023e-05 2.2873792e-05 2.3694188e-21)
(-6.1604009e-05 2.3222852e-05 0)
(-6.7353942e-05 2.5124224e-05 2.2972674e-24)
(-6.9200503e-05 2.6488944e-05 -2.3185921e-24)
(-6.3645248e-05 2.4782994e-05 -2.4052571e-21)
(-6.1882368e-05 2.4130011e-05 -2.4393923e-21)
(-5.9848681e-05 2.3395175e-05 -2.4586618e-21)
(-5.8318813e-05 2.2841497e-05 -2.4256366e-24)
(-5.7009202e-05 2.2377415e-05 -2.5089124e-21)
(-5.5995555e-05 2.2033933e-05 5.0588581e-21)
(-5.5411303e-05 2.1878374e-05 -2.546981e-21)
(-5.5331239e-05 2.1958637e-05 -2.5604812e-21)
(-5.6291144e-05 2.268377e-05 1.2480042e-24)
(-6.3523002e-05 2.5160533e-05 -9.3637768e-38)
(-6.6162246e-05 2.7009656e-05 1.2440161e-24)
(-6.0096663e-05 2.5132291e-05 -1.8987431e-24)
(-5.8204304e-05 2.4381743e-05 -2.6258083e-21)
(-5.6113703e-05 2.3569875e-05 -2.656638e-21)
(-5.4534495e-05 2.2947852e-05 -2.6871585e-21)
(-5.313923e-05 2.2404407e-05 -4.4200564e-29)
(-5.1977234e-05 2.1956844e-05 6.686943e-25)
(-5.1047897e-05 2.1605494e-05 -2.7640641e-21)
(-5.0361736e-05 2.13751e-05 1.8367099e-40)
(-5.0150461e-05 2.142609e-05 -2.8010092e-21)
(-5.1650953e-05 2.2069814e-05 8.5465202e-26)
(-5.3559449e-05 2.2879712e-05 -1.4068062e-21)
(-5.2662201e-05 2.282895e-05 -2.8383504e-21)
(-5.0073698e-05 2.1891558e-05 1.7552864e-25)
(-4.9040073e-05 2.1454014e-05 2.9106795e-21)
(-4.7844973e-05 2.0974519e-05 -3.5966822e-25)
(-4.6902662e-05 2.0596174e-05 1.4859071e-21)
(-4.6091878e-05 2.0276506e-05 -7.3146793e-25)
(-4.5441352e-05 2.0026705e-05 7.3861735e-25)
(-4.4957102e-05 1.9865922e-05 1.5236988e-21)
(-4.4742738e-05 1.9854072e-05 9.1835496e-41)
(-4.5023738e-05 2.0135706e-05 1.5382489e-21)
(-4.7242668e-05 2.1044609e-05 -4.995851e-38)
(-4.9038924e-05 2.1874014e-05 1.5088391e-24)
(-4.7894116e-05 2.1743237e-05 -1.5227025e-24)
(-4.5726469e-05 2.0934746e-05 -2.9387359e-39)
(-4.4811346e-05 2.0537088e-05 -1.6016153e-21)
(-4.3803414e-05 2.0121636e-05 -1.6187292e-21)
(-4.3029442e-05 1.9803506e-05 1.6352859e-21)
(-4.2378063e-05 1.9541493e-05 -1.6504863e-21)
(-4.1859809e-05 1.9343133e-05 -1.6274357e-24)
(-4.1501891e-05 1.9234988e-05 1.6418221e-24)
(-4.1369946e-05 1.9248502e-05 -1.6521326e-24)
(-4.1566416e-05 1.9457004e-05 1.695975e-21)
(-4.2681591e-05 2.0116616e-05 1.6533456e-24)
(-4.5545528e-05 2.1240351e-05 -4.017803e-41)
(-4.60569e-05 2.1741748e-05 -4.1142302e-38)
(-4.2956833e-05 2.065324e-05 -1.7366858e-21)
(-4.2487649e-05 2.0420081e-05 -3.4388066e-24)
(-4.1555191e-05 2.0033813e-05 -3.5608839e-21)
(-4.0973741e-05 1.9790858e-05 1.7567977e-24)
(-4.0460437e-05 1.9584756e-05 1.7749727e-24)
(-4.0071626e-05 1.9447469e-05 -1.7912884e-24)
(-3.9806862e-05 1.9382077e-05 -1.8490007e-21)
(-3.9692444e-05 1.9392199e-05 -1.0579449e-37)
(-3.9747252e-05 1.9491557e-05 -7.3282017e-28)
(-4.0050208e-05 1.9742949e-05 1.8341242e-24)
(-4.0879407e-05 2.0311287e-05 3.2903537e-29)
(-4.312731e-05 2.1273006e-05 -9.3443892e-22)
(-4.4090689e-05 2.1819139e-05 -2.9387359e-39)
(-4.2868266e-05 2.1565543e-05 -2.8698593e-42)
(-4.3323773e-05 2.1872133e-05 9.3550178e-25)
(-4.3708098e-05 2.2167408e-05 9.5979078e-22)
(-4.4515551e-05 2.2664838e-05 -9.6204089e-22)
(-4.5712637e-05 2.3375286e-05 9.5918979e-22)
(-4.7482123e-05 2.4415968e-05 -1.1754944e-38)
(-5.0103221e-05 2.5964752e-05 -1.8734836e-21)
(-5.402859e-05 2.829269e-05 -4.2662842e-27)
(-5.9863505e-05 3.1876385e-05 2.9387359e-39)
(-6.8623936e-05 3.7394055e-05 8.2734963e-22)
(-8.1579103e-05 4.5354389e-05 7.6565505e-22)
(-9.6668104e-05 5.575272e-05 -5.8774718e-39)
(-0.00011236624 7.1766187e-05 -6.19369e-22)
(-2.8167399e-05 -2.9367522e-06 -8.8163846e-24)
(-2.5744455e-05 -2.4403584e-06 4.4153423e-24)
(-2.6557386e-05 -2.4512561e-06 9.0474031e-21)
(-2.76796e-05 -2.476908e-06 -4.4176267e-24)
(-2.7147762e-05 -2.0079943e-06 -4.5163963e-21)
(-2.5398138e-05 -1.6751904e-06 -4.5361632e-21)
(-2.5877022e-05 -1.6200676e-06 2.3228282e-38)
(-2.5182402e-05 -1.3317786e-06 -4.5361649e-21)
(-2.4109292e-05 -1.1136111e-06 4.4344737e-24)
(-2.3637464e-05 -9.8053907e-07 -2.2763765e-21)
(-2.2953493e-05 -8.7328717e-07 4.5511491e-21)
(-2.2865057e-05 -8.6257324e-07 -2.2832225e-21)
(-2.2837534e-05 -8.3402972e-07 4.4426108e-24)
(-2.266565e-05 -8.0761638e-07 4.5482963e-21)
(-2.2604091e-05 -7.8935958e-07 -2.2734578e-21)
(-2.2492508e-05 -7.7438385e-07 2.2738611e-21)
(-2.2457784e-05 -7.7182777e-07 2.2230142e-24)
(-2.2496251e-05 -7.8125809e-07 4.5529474e-21)
(-2.2666058e-05 -7.9411498e-07 -2.2764794e-21)
(-2.2690185e-05 -7.8633682e-07 -2.2231485e-24)
(-2.2926744e-05 -7.9403697e-07 -2.2742297e-21)
(-2.2825338e-05 -7.4116165e-07 -8.2966359e-38)
(-2.2936075e-05 -7.3125617e-07 -2.2767498e-21)
(-2.2735247e-05 -6.4330956e-07 2.0662987e-40)
(-2.2648285e-05 -6.2183851e-07 8.1880672e-41)
(-2.2451125e-05 -5.3247055e-07 -2.2241143e-24)
(-2.2311375e-05 -5.1385263e-07 4.4492967e-24)
(-2.213042e-05 -4.3277023e-07 -2.2247812e-24)
(-2.200973e-05 -4.2032864e-07 -1.1404848e-21)
(-2.1838487e-05 -3.4551041e-07 -1.2270989e-29)
(-2.1731025e-05 -3.3966452e-07 1.1407738e-21)
(-2.1598279e-05 -2.7155775e-07 1.1396743e-21)
(-2.1487692e-05 -2.7003629e-07 1.1399019e-21)
(-2.142049e-05 -2.130247e-07 -5.699555e-22)
(-2.1333984e-05 -2.0931685e-07 5.7004117e-22)
(-2.1290489e-05 -1.5614385e-07 -5.7004471e-22)
(-2.1202715e-05 -1.4497031e-07 -1.7219156e-41)
(-2.1154855e-05 -8.7219339e-08 3.0640762e-38)
(-2.0951759e-05 -6.2881471e-08 -6.5669295e-39)
(-2.092165e-05 -9.64456e-09 -2.7844486e-25)
(-2.0600337e-05 2.7566972e-08 7.1571567e-23)
(-2.0565937e-05 6.2670292e-08 -8.7038475e-27)
(-2.0284122e-05 1.0228223e-07 8.7047121e-27)
(-2.0241585e-05 1.212874e-07 -5.5778159e-38)
(-2.0040619e-05 1.5813021e-07 1.7219156e-41)
(-2.0062227e-05 1.6967149e-07 -5.7010082e-22)
(-1.984069e-05 2.1309957e-07 -5.5728774e-25)
(-1.9922338e-05 2.1829743e-07 5.5733554e-25)
(-1.9678015e-05 2.8474279e-07 5.5735826e-25)
(-1.9546626e-05 2.8599406e-07 -1.1148972e-24)
(-1.9413817e-05 3.5542364e-07 1.1416758e-21)
(-1.9077651e-05 3.6044253e-07 1.1152175e-24)
(-1.9006274e-05 4.1142005e-07 1.5671708e-29)
(-1.8676157e-05 4.2164713e-07 2.2834144e-21)
(-1.8596559e-05 4.529333e-07 -1.095846e-29)
(-1.8372646e-05 4.6667717e-07 -2.2850375e-21)
(-1.8283945e-05 4.9075756e-07 2.2852435e-21)
(-1.8088061e-05 5.0903471e-07 2.2854743e-21)
(-1.7997115e-05 5.3486693e-07 -3.6734198e-40)
(-1.7719589e-05 5.6123331e-07 -2.2859399e-21)
(-1.7576988e-05 5.8566972e-07 2.2327466e-24)
(-1.7217756e-05 6.1939824e-07 -2.2329621e-24)
(-1.6978164e-05 6.3776067e-07 -2.2893949e-21)
(-1.6559627e-05 6.7430575e-07 -2.2874944e-21)
(-1.6198551e-05 6.8455834e-07 2.2345991e-24)
(-1.5699572e-05 7.1731849e-07 9.1835496e-41)
(-1.5169094e-05 7.1116342e-07 4.5793904e-21)
(-1.4616426e-05 7.2571636e-07 -3.1444474e-37)
(-1.3977124e-05 6.925002e-07 -4.5806999e-21)
(-1.3514088e-05 6.7419626e-07 4.5822457e-21)
(-1.3069015e-05 6.3179095e-07 4.5862919e-21)
(-1.2597471e-05 5.8194984e-07 4.2519835e-37)
(-1.2467495e-05 5.3400132e-07 -4.5847153e-21)
(-1.1940161e-05 4.6427327e-07 -4.4825039e-24)
(-1.2126947e-05 3.9624936e-07 -2.2956783e-21)
(-1.1694725e-05 3.354015e-07 -4.595914e-21)
(-1.1837639e-05 1.999664e-07 1.1569534e-21)
(-1.2247796e-05 1.6802666e-07 -4.4844836e-24)
(-1.1918728e-05 7.7218889e-09 -1.5847947e-29)
(-1.2906432e-05 -7.5212429e-08 -2.926962e-30)
(-1.2525814e-05 -1.9264429e-07 4.4842105e-24)
(-1.3294609e-05 -4.01121e-07 -8.9647508e-24)
(-1.4241445e-05 -5.1241313e-07 4.4822111e-24)
(-1.419078e-05 -6.9631735e-07 -4.4812577e-24)
(-1.5326793e-05 -9.4266364e-07 8.9584196e-24)
(-1.6341935e-05 -1.128781e-06 -4.4783428e-24)
(-1.6620731e-05 -1.3311193e-06 4.4771969e-24)
(-1.7740277e-05 -1.6437878e-06 9.1559308e-21)
(-1.9020271e-05 -1.9233882e-06 4.4721475e-24)
(-2.0009186e-05 -2.2232062e-06 9.1573102e-21)
(-2.1261309e-05 -2.5755824e-06 9.152218e-21)
(-2.2994249e-05 -3.0063994e-06 9.1456458e-21)
(-2.4843098e-05 -3.4966515e-06 9.1367997e-21)
(-2.7987896e-05 -4.031942e-06 9.1270108e-21)
(-2.8948463e-05 -4.3358665e-06 -9.1222956e-21)
(-3.3855265e-05 -5.2499791e-06 8.8863541e-24)
(-3.7586559e-05 -7.5313058e-06 1.8049833e-20)
(-8.3078317e-05 -9.8633044e-06 6.6268494e-37)
(-4.9552873e-05 1.0104667e-05 -2.5111268e-42)
(-0.00012692868 -9.1957311e-05 1.1754944e-38)
(-0.00010217148 -6.8700399e-05 4.071349e-23)
(-9.031416e-05 -5.8653394e-05 -4.3699372e-23)
(-8.5777207e-05 -5.3661711e-05 1.8367099e-40)
(-9.5883109e-05 -5.8130294e-05 -5.1370481e-40)
(-0.00010798603 -6.2432389e-05 -2.1191041e-38)
(-0.00017456069 -0.00010508233 0)
(-0.00017448318 -7.5398409e-05 -8.6436523e-22)
(-5.3758306e-05 -1.1767511e-05 -3.873931e-23)
(-2.1245797e-05 -9.2792257e-07 -2.9752747e-21)
(-3.7134148e-05 -7.7616731e-06 4.2465221e-23)
(-2.8814035e-05 -5.4303528e-06 -2.9387359e-39)
(4.8961287e-06 4.6204562e-06 2.5026803e-21)
(7.5394917e-06 4.087845e-06 3.6740563e-23)
(5.185635e-06 2.8372127e-06 -3.3754157e-23)
(5.7573173e-06 2.7479465e-06 -3.6045432e-39)
(1.8664939e-06 1.9819795e-06 2.2040519e-39)
(-4.382823e-06 5.6234646e-07 -3.4034142e-21)
(-1.0746461e-05 -8.3584598e-07 7.3468397e-40)
(-1.5919755e-05 -1.9411055e-06 -5.8291511e-21)
(-1.7003262e-05 -2.0392227e-06 -1.5246189e-27)
(-1.8556287e-05 -2.2755723e-06 -1.0024087e-20)
(-2.118176e-05 -2.7947246e-06 9.176004e-24)
(-2.6260698e-05 -3.7768909e-06 -8.6509499e-24)
(-2.5704241e-05 -3.2225478e-06 -4.1974701e-21)
(-2.3181895e-05 -2.6614744e-06 -7.629392e-24)
(-2.5005921e-05 -3.0007075e-06 -5.9693073e-39)
(-2.8213677e-05 -3.5255163e-06 6.9734987e-24)
(-5.0437266e-06 -4.2452213e-05 -6.0797567e-22)
(-4.1965325e-06 -3.600152e-05 3.9078155e-23)
(-5.5072821e-06 -4.1467363e-05 -3.7883179e-23)
(-6.3826991e-06 -4.6320628e-05 5.4307525e-22)
(-8.7862541e-06 -5.9874465e-05 5.4327902e-22)
(-1.2598163e-05 -5.9389278e-05 3.3751491e-23)
(-1.1654937e-05 -5.3957826e-05 1.0732194e-21)
(-1.3126381e-05 -5.7966072e-05 6.7202918e-23)
(-1.4837703e-05 -6.4338535e-05 -3.2238369e-23)
(-1.7190549e-05 -7.3115695e-05 1.4693679e-39)
(-2.0398609e-05 -8.3911947e-05 8.7568186e-22)
(-2.7019081e-05 -0.00010696155 -7.6015688e-22)
(-3.8961002e-05 -0.00011883356 7.6716048e-22)
(-4.1739279e-05 -0.00010104287 -1.6033624e-27)
(-3.3812505e-05 -7.671053e-05 8.9683102e-44)
(-3.5024985e-05 -7.4801215e-05 2.9387359e-39)
(-3.8998183e-05 -8.1007512e-05 1.6998911e-21)
(-4.5060003e-05 -9.364119e-05 2.523282e-23)
(-5.1012467e-05 -0.00010063068 -2.0571151e-38)
(-5.1487375e-05 -9.4006355e-05 1.5834401e-21)
(-4.9846715e-05 -8.7383367e-05 5.0571631e-23)
(-5.4984149e-05 -9.3738463e-05 -4.7831394e-23)
(-6.2743728e-05 -0.00010542411 2.405721e-26)
(-7.2820888e-05 -0.00012033181 -3.9822575e-23)
(-9.1217288e-05 -0.00014980449 -1.0843983e-21)
(-0.00011209411 -0.00016426509 3.4525918e-26)
(-0.0001106847 -0.00013536213 -1.1024106e-21)
(-8.1787617e-05 -9.2031926e-05 4.1469389e-23)
(-7.4126904e-05 -7.9189442e-05 1.3677372e-21)
(-7.9448249e-05 -8.2050016e-05 6.1451112e-27)
(-8.8689675e-05 -8.9038123e-05 3.9812184e-23)
(-0.0001153384 -0.00011740279 3.501339e-23)
(-0.00011816046 -0.0001092305 -3.5264395e-23)
(-9.0630696e-05 -7.7097987e-05 -2.6173797e-21)
(-7.7669404e-05 -6.2844881e-05 -1.4048957e-21)
(-7.7336319e-05 -6.0252567e-05 -1.4648342e-21)
(-8.5843543e-05 -6.5565147e-05 -4.2293306e-23)
(-9.6458054e-05 -7.1944072e-05 1.2054914e-21)
(-0.00012605992 -9.6013002e-05 -1.0520344e-21)
(4.390772e-07 -4.1988241e-05 -3.4714136e-22)
(1.008783e-06 -2.7621797e-05 4.5701285e-23)
(1.0020238e-06 -2.3249283e-05 2.4979128e-27)
(8.8138202e-07 -1.8570241e-05 -9.524718e-23)
(7.6982458e-07 -1.5286866e-05 4.8270387e-23)
(6.9172861e-07 -1.2869112e-05 -7.8608208e-22)
(7.2626805e-07 -9.5719216e-06 -8.543102e-22)
(2.665107e-07 -4.770323e-06 9.1937138e-22)
(-1.7083007e-07 -1.7138755e-06 -8.8162076e-39)
(-5.407244e-07 1.3926753e-06 5.8445176e-23)
(-9.8603102e-07 3.688837e-06 7.9807917e-22)
(-1.4927482e-06 6.4039334e-06 -2.0295645e-38)
(-2.1469935e-06 9.3278314e-06 6.6914641e-22)
(-3.0367109e-06 1.2632725e-05 5.8036794e-22)
(-4.3455454e-06 1.6238061e-05 -4.9031451e-22)
(-5.1179149e-06 2.2486346e-05 -4.1671493e-22)
(-7.1466152e-06 2.5330711e-05 -5.8774718e-39)
(-8.6714804e-06 2.3880144e-05 4.049135e-22)
(-9.996751e-06 2.4619666e-05 2.5120432e-23)
(-1.1156183e-05 2.6301012e-05 9.3672206e-39)
(-1.2263687e-05 2.830584e-05 4.5495797e-27)
(-1.3418221e-05 3.0549318e-05 -3.0595754e-22)
(-1.4713453e-05 3.3068614e-05 -5.512985e-27)
(-1.6360974e-05 3.5830576e-05 -6.8241187e-27)
(-1.7798638e-05 4.0512789e-05 -1.3907532e-23)
(-1.9384632e-05 4.3570335e-05 2.8790335e-23)
(-2.0419961e-05 4.15568e-05 -1.9451381e-28)
(-2.1453195e-05 4.0825153e-05 2.089636e-22)
(-2.2601041e-05 4.146253e-05 -1.9780202e-22)
(-2.3856323e-05 4.2785034e-05 -1.2366485e-23)
(-2.5237507e-05 4.4576489e-05 1.4693679e-39)
(-2.67928e-05 4.6786428e-05 -1.7096281e-22)
(-2.8603992e-05 4.942978e-05 -1.4693679e-39)
(-3.0832132e-05 5.263154e-05 -1.4693679e-39)
(-3.3937295e-05 5.6453961e-05 -1.3857091e-22)
(-3.7409083e-05 6.3330977e-05 1.2420917e-22)
(-4.2495537e-05 7.285261e-05 -1.2419633e-22)
(-4.96719e-05 7.4492663e-05 0)
(-4.968594e-05 6.2669991e-05 2.9900101e-22)
(-4.8359922e-05 5.7076317e-05 1.0267795e-23)
(-4.6783623e-05 5.4452179e-05 3.8889533e-27)
(-4.5477665e-05 5.256408e-05 1.0674727e-23)
(-4.5010151e-05 5.1436628e-05 1.5853873e-22)
(-4.548496e-05 5.1172504e-05 -2.9387359e-39)
(-4.6740324e-05 5.1693074e-05 -1.4835525e-22)
(-4.8773374e-05 5.2976965e-05 -1.5992654e-22)
(-5.1831531e-05 5.5084021e-05 -1.4107923e-22)
(-5.486432e-05 5.9794844e-05 8.2403968e-24)
(-5.9853714e-05 6.7060523e-05 1.3226921e-22)
(-6.4907436e-05 6.6503458e-05 -3.1602328e-22)
(-6.2846861e-05 5.6622724e-05 1.7568367e-22)
(-6.0293084e-05 5.1192764e-05 1.8863483e-22)
(-5.7628018e-05 4.8256329e-05 -3.9315498e-22)
(-5.5188549e-05 4.6167111e-05 -2.0158965e-22)
(-5.3261959e-05 4.4611376e-05 -8.8162076e-39)
(-5.190473e-05 4.3517942e-05 -4.2413917e-22)
(-5.1453832e-05 4.2895757e-05 -1.9115777e-22)
(-5.1919383e-05 4.2767713e-05 -1.9977761e-22)
(-5.3170988e-05 4.3162551e-05 3.8779416e-22)
(-5.5163441e-05 4.4127555e-05 -1.8642373e-22)
(-5.8043023e-05 4.5602269e-05 -1.108744e-23)
(-6.1470832e-05 4.8232358e-05 2.0870413e-23)
(-6.3953266e-05 5.3843887e-05 -1.0164976e-23)
(-7.4697107e-05 6.2748946e-05 2.2040519e-39)
(-7.1469527e-05 5.0921009e-05 9.5411475e-23)
(-6.7823351e-05 4.3584675e-05 1.5173827e-23)
(-6.3455149e-05 3.9411285e-05 1.3096401e-22)
(-5.90857e-05 3.639186e-05 2.5947152e-22)
(-5.5198841e-05 3.3994109e-05 1.8043496e-23)
(-5.1951422e-05 3.2113827e-05 1.3984302e-22)
(-4.9362849e-05 3.0666003e-05 1.9114352e-23)