/*--------------------------------*- C++ -*----------------------------------*\
| =========                 |                                                 |
| \\      /  F ield         | OpenFOAM: The Open Source CFD Toolbox           |
|  \\    /   O peration     | Version:  v2006                                 |
|   \\  /    A nd           | Website:  www.openfoam.com                      |
|    \\/     M anipulation  |                                                 |
\*---------------------------------------------------------------------------*/
FoamFile
{
    version     2.0;
    format      ascii;
    class       volScalarField;
    location    "10000";
    object      yPlus;
}
// * * * * * * * * * * * * * * * * * * * * * * * * * * * * * * * * * * * * * //

dimensions      [0 0 0 0 0 0 0];


internalField   uniform 0;

boundaryField
{
    Side
    {
        type            empty;
    }
    Ground
    {
        type            calculated;
        value           nonuniform List<scalar> 
645
(
0.76610887
0.76446777
0.76203926
0.76084332
0.76034132
0.76091325
0.76260588
0.76560436
0.77006489
0.77609662
0.78386208
0.79352031
0.80519862
0.81896469
0.83498013
0.85359982
0.87448562
0.89378876
0.92265893
0.99748988
0.93353582
1.1495695
1.1227588
1.0975334
1.0731412
1.0496714
1.0270663
1.0052773
0.98426319
0.9639744
0.94436562
0.92537616
0.90698432
0.88919051
0.87197374
0.85532224
0.83924518
0.8237714
0.80896568
0.79476471
0.78093035
0.77074158
1.1676968
1.1756253
1.1817274
1.1862552
1.1893211
1.1914399
1.1925889
1.1931937
1.1932038
1.1929373
1.1922928
1.191512
1.1905056
1.1894081
1.1882108
1.1869356
1.1856023
1.1842087
1.1827748
1.1812971
1.1797783
1.1781901
1.1765265
1.1747586
1.1728762
1.1708313
1.1686099
1.1661722
1.1634676
1.1604322
1.1570233
1.1531783
1.1488383
1.1439255
1.1383674
1.1320748
1.124974
1.1169642
1.1079708
1.0979023
1.0866402
1.074127
1.0602677
1.0450233
1.0282758
1.009878
0.98985824
0.9681529
0.94468828
0.91943294
0.89234399
0.86337378
0.83248618
0.7996293
0.76474931
0.72776338
0.68855201
0.64694456
0.60268422
0.55538412
0.50444037
0.44886369
0.38692589
0.31517863
0.22471038
0.057808998
0.2054317
0.29302798
0.35731088
0.40941006
0.45357327
0.49194416
0.52579519
0.55598848
0.58314058
0.6077083
0.6300329
0.65040565
0.66906938
0.68621868
0.7020083
0.71655799
0.72997664
0.74237878
0.75386367
0.76451127
0.77439067
0.7835712
0.79211277
0.8000683
0.80748832
0.814414
0.8208793
0.8269215
0.83257578
0.83786483
0.84280781
0.84743078
0.85175813
0.85580632
0.8595954
0.86310859
0.86641324
0.86922293
0.9927708
0.97164678
0.94754395
0.9366847
0.92796658
0.92038996
0.91285363
0.90603703
0.89992929
0.89475879
0.89019533
0.88605225
0.88230833
0.87876775
0.87566439
0.87275019
0.8701779
0.86779829
0.86556988
0.863469
0.86145365
0.85955633
0.8576631
0.85591792
0.85419767
0.85250735
0.8509565
0.84932988
0.84781905
0.84640157
0.84487852
0.8434862
0.84215283
0.84069511
0.83932947
0.83799514
0.8365747
0.83516645
0.83380528
0.83237008
0.83083072
0.82939623
0.82793819
0.82631028
0.82471819
0.82318007
0.82155032
0.81971306
0.81802762
0.81635622
0.81451035
0.81247204
0.81058531
0.80867919
0.80656187
0.80424203
0.80201655
0.79975385
0.79726466
0.79456112
0.79187118
0.78912475
0.78615196
0.78294937
0.77965627
0.77633734
0.77282428
0.76907493
0.76502073
0.76103961
0.75696794
0.75259185
0.7479351
0.74307564
0.73826181
0.73324397
0.72793435
0.72234151
0.71657175
0.71076207
0.70472959
0.6983999
0.69178755
0.68501474
0.67812491
0.67099639
0.66356701
0.65578204
0.64775703
0.63970763
0.63156532
0.62334377
0.61500605
0.60627212
0.59736178
0.58796876
0.57780337
0.56726981
0.55643127
0.54592091
0.53610294
0.52650514
0.51685941
0.5065416
0.49501072
0.4826554
0.4695331
0.4559457
0.44265164
0.4299752
0.41801711
0.40669173
0.39538437
0.38313577
0.36961258
0.35441528
0.33697636
0.32121925
0.30480605
0.28863387
0.2757767
0.26055761
0.24709644
0.23210538
0.21528977
0.19959407
0.18210083
0.16958866
0.16228984
0.1631188
0.16893351
0.17916813
0.19049332
0.20323371
0.21836184
0.23171128
0.24534942
0.25703052
0.26650139
0.27616522
0.28426454
0.29370354
0.30383055
0.31312402
0.32322808
0.33180174
0.3391762
0.34669641
0.35361937
0.36107435
0.36897518
0.37671232
0.38454505
0.39180402
0.39881445
0.40615988
0.41354184
0.42113033
0.4289315
0.43659271
0.44413281
0.45196801
0.46009912
0.46828918
0.47665201
0.48506537
0.49347555
0.50194776
0.51064407
0.51968991
0.52880796
0.53800358
0.54734016
0.55669745
0.56605361
0.57556332
0.58548614
0.59568346
0.60584127
0.61613692
0.62646496
0.63676931
0.64701748
0.65756484
0.66850064
0.67928116
0.69008088
0.70082488
0.7114775
0.72198212
0.73235374
0.74275312
0.75307831
0.76310491
0.77288642
0.78235272
0.79145746
0.80011067
0.80821936
0.8158279
0.82329107
0.83088246
0.8383098
0.84529729
0.85182931
0.85792799
0.86373391
0.86935385
0.87452481
0.87927007
0.88358611
0.88744879
0.89079714
0.89364427
0.89657177
0.90005736
0.90312263
0.9058453
0.90823845
0.91026999
0.9118662
0.91301444
0.91454037
0.91724257
0.91962844
0.92168411
0.92354065
0.92513775
0.92645018
0.92742293
0.9286139
0.93085403
0.93330175
0.93522923
0.93705333
0.93864198
0.94002701
0.94113873
0.9419548
0.94362953
0.94595037
0.94773021
0.94943955
0.95095303
0.95230761
0.95347876
0.95440003
0.955506
0.95772284
0.96029097
0.96238664
0.96444453
0.96632235
0.96806351
0.96963819
0.97099429
0.97270669
0.97521018
0.9777391
0.979986
0.98214311
0.98414416
0.98601383
0.98773715
0.98927911
0.99100725
0.99323844
0.99546788
0.99746009
0.99935761
1.0011145
1.002752
1.0042664
1.0056263
1.0069912
1.0089433
1.0111062
1.0129443
1.0147238
1.0163611
1.0178813
1.0192891
1.0205749
1.021707
1.0231458
1.0249201
1.0265184
1.0279925
1.029352
1.0305923
1.0317209
1.0327466
1.0336594
1.0344362
1.0355095
1.0367603
1.0377607
1.0386941
1.0395091
1.0402223
1.0408356
1.0413581
1.0417837
1.0420916
1.0426792
1.0434521
1.0440059
1.0444904
1.0448664
1.0451461
1.0453302
1.0454216
1.0454223
1.0453283
1.0452762
1.0453212
1.045293
1.045151
1.0449217
1.0446036
1.0441992
1.0437119
1.043144
1.0424975
1.0417688
1.0411103
1.0404908
1.0397476
1.0389296
1.0380312
1.0370555
1.0360071
1.0348909
1.033709
1.0324589
1.0311366
1.0299029
1.0287269
1.0274419
1.026094
1.0246698
1.0231758
1.021614
1.0199856
1.0182977
1.0165489
1.0147364
1.0129136
1.0110806
1.0092033
1.0072509
1.0052409
1.0031706
1.0010461
0.99886924
0.9966413
0.99436506
0.99204155
0.98966931
0.98728266
0.98490414
0.98248832
0.98001599
0.97749591
0.97492952
0.97231738
0.96966391
0.96697028
0.96423528
0.96146299
0.95865246
0.95580613
0.95297289
0.95013612
0.94724767
0.94432587
0.94136753
0.93837369
0.93534223
0.93227464
0.92917937
0.92605993
0.92291616
0.91974968
0.91655895
0.91337141
0.91018519
0.90697355
0.9037466
0.90050581
0.89725811
0.89401138
0.89076948
0.88753146
0.88430554
0.88109887
0.87789232
0.87473512
0.87188923
0.7050272
0.73213281
0.75894801
0.78496551
0.81004331
0.83398082
0.85667425
0.87811906
0.89840738
0.91760734
0.93574834
0.95272935
0.96835973
0.98243036
0.99468373
1.0048003
1.0124569
1.0172644
1.0187233
1.0161974
1.0088876
0.9959188
0.9763133
0.94920081
0.91437834
0.87325117
0.83058041
0.79486034
0.77540081
0.7758869
0.79183242
0.81578634
0.84323991
0.8722525
0.90187346
0.93137774
0.96019173
0.98777631
1.0136537
1.0374248
1.0586679
1.0769889
1.0920154
1.1034603
1.1111205
1.1149302
1.1149986
1.1116043
1.1051459
1.0961852
1.0853697
1.0734005
1.0609692
1.0487118
1.0371565
1.026698
1.0175464
1.0095774
1.0029974
0.99714403
0.9889715
0.67554977
0.64896563
0.62554369
0.6050884
0.58683069
0.57057894
0.55599846
0.54290734
0.53109421
0.52041239
0.51071548
0.50190077
0.49386064
0.48651617
0.47979127
0.47362409
0.46795584
0.46274181
0.45793661
0.45350362
0.4494086
0.44562021
0.44211318
0.43886287
0.43584676
0.43305016
0.43044596
0.42803574
0.4257779
0.42370961
0.42173337
0.41998954
0.41821286
0.41684742
0.41509837
0.41436596
0.41214014
0.41298397
0.4083834
)
;
    }
    Inlet
    {
        type            calculated;
        value           uniform 0;
    }
    Airfoil
    {
        type            calculated;
        value           nonuniform List<scalar> 
646
(
0.39717945
0.50033147
1.1116521
0.88019283
0.9824212
0.92861161
0.95373335
0.91795278
0.89730964
0.8646155
0.85104438
0.83223454
0.82459745
0.8114141
0.80243126
0.79279405
0.78190488
0.77436561
0.76517063
0.7578995
0.74894475
0.7420252
0.73391713
0.72509821
0.71882807
0.70964535
0.7028435
0.69612093
0.6866609
0.68059114
0.67370904
0.66460666
0.65834053
0.65152469
0.64295038
0.63604241
0.62911543
0.621386
0.61347117
0.60723144
0.59972487
0.59194052
0.58480646
0.57884069
0.57057126
0.56355709
0.55645349
0.5511635
0.54261546
0.53606391
0.52884367
0.52359331
0.51560439
0.50876744
0.50152269
0.49567706
0.48855387
0.48103219
0.47403104
0.46688238
0.46073829
0.4522109
0.44568021
0.43668827
0.43131835
0.42222394
0.41552544
0.40587968
0.39675899
0.39202932
0.38140276
0.3747461
0.36165289
0.35330752
0.34665603
0.33671523
0.32726689
0.31179695
0.30305108
0.29429875
0.28372062
0.27126683
0.25252003
0.24098229
0.2306642
0.21679841
0.20151962
0.17311227
0.15113468
0.14404893
0.1234772
0.12212105
0.14365341
0.18090158
0.18185587
0.2050931
0.2152114
0.2457657
0.28300542
0.29424669
0.29979472
0.31486894
0.31940577
0.35252499
0.38026679
0.37696477
0.38683273
0.39455715
0.40457779
0.42988493
0.44660546
0.44658268
0.45421329
0.46038177
0.470994
0.49446672
0.50788821
0.50793443
0.51402696
0.51960561
0.5284512
0.55407848
0.57007485
0.56757245
0.57206065
0.57746979
0.57999086
0.60773256
0.63178816
0.62493871
0.6284713
0.63184935
0.63370868
0.65197457
0.67732175
0.67996149
0.67918734
0.68124265
0.68411574
0.68823066
0.71263248
0.73142664
0.7250557
0.72679787
0.7285049
0.73013773
0.74099939
0.76276227
0.77055723
0.76746707
0.76871926
0.77051138
0.77164985
0.78422287
0.8026869
0.80516044
0.803994
0.80521003
0.80699766
0.80819421
0.81991486
0.83623433
0.83796645
0.83727164
0.83848209
0.84023467
0.84142171
0.85441535
0.87638826
0.88141549
0.87813795
0.87858452
0.87962866
0.88066476
0.88961461
0.92094859
0.93859196
0.92909564
0.92827137
0.92796687
0.92897719
0.92683362
0.95876073
0.99272449
0.98261441
0.97967277
0.97823717
0.97838286
0.97862093
0.98569521
1.0078406
1.019073
1.0125942
1.0124003
1.0125441
1.0134254
1.0142835
1.0196534
1.0274024
1.0288693
1.0284846
1.0292112
1.0301059
1.0309967
1.0308849
1.049784
1.0712794
1.0668399
1.062377
1.0596619
1.0572851
1.0560511
1.0539341
1.1243708
1.198823
1.1791944
1.1609167
1.1498248
1.1414008
1.1371537
1.1252032
1.2226674
1.3549339
1.3464067
1.3012074
1.2810451
1.2643631
1.2520025
1.2379044
1.2928524
1.4554176
1.5098227
1.4303032
1.4095913
1.3874581
1.371064
1.3551577
1.3336613
1.4821564
1.5937078
1.5098399
1.4835091
1.4561225
1.4369157
1.4201431
1.401635
1.4587762
1.6467697
1.7030608
1.5987941
1.5729127
1.5413678
1.5191926
1.5019661
1.482541
1.5728171
1.714638
1.710268
1.6356486
1.608776
1.5809994
1.5601479
1.5436304
1.5277553
1.5914538
1.696474
1.6903468
1.6263385
1.6027533
1.5774411
1.5582476
1.5432846
1.5333905
1.5692569
1.7184544
1.7530193
1.6541354
1.6329421
1.6027835
1.5824077
1.5650902
1.5541478
1.5466408
1.6618725
1.7373848
1.6802892
1.638906
1.6122195
1.5899405
1.571902
1.5586703
1.5512515
1.5513008
1.6767092
1.7204893
1.6268756
1.6107657
1.5841253
1.5669833
1.5522954
1.5433143
1.5410895
1.5494873
1.6913406
1.7382907
1.639708
1.6210603
1.5931541
1.5748919
1.5587244
1.5472713
1.5409312
1.5438981
1.6028424
1.6506294
1.6258314
1.5862352
1.5691934
1.5517226
1.5383024
1.5276041
1.5207518
1.5206219
1.531429
1.607923
1.6296737
1.5709875
1.5565707
1.5383009
1.5258191
1.5157937
1.509379
1.5086205
1.5148174
1.5361425
1.6373165
1.6651191
1.5946921
1.5766089
1.5553719
1.5403895
1.5275018
1.5175273
1.5106136
1.507169
1.5110913
1.5399589
1.5702979
1.5593733
1.527837
1.5183102
1.5061253
1.4974824
1.4906666
1.4862161
1.4844189
1.4871612
1.4984676
1.5403483
1.5683243
1.5516973
1.5229379
1.5134799
1.5023449
1.4948312
1.4892231
1.4857927
1.4851914
1.4886735
1.498307
1.5244414
1.5775087
1.5799316
1.5335964
1.5303727
1.5192785
1.5140939
1.5100533
1.5082637
1.5087959
1.5121263
1.5187008
1.5302298
1.5520462
1.5982832
1.6107696
1.5956043
1.6096009
1.6226215
1.6433067
1.6711722
1.7094495
1.7628067
1.8382102
1.9444072
2.093481
2.2951189
2.518833
2.7515239
1.4543848
1.3856455
1.4033446
1.4288321
1.4066819
1.356408
1.3657223
1.3421912
1.3100516
1.2943819
1.2735778
1.2700674
1.2679644
1.2621345
1.2593954
1.255403
1.2536764
1.2541127
1.2581515
1.2580087
1.2638066
1.2598385
1.2621142
1.255223
1.252123
1.2454463
1.2409992
1.2349499
1.2311454
1.2255194
1.222188
1.2177874
1.2144395
1.2120407
1.2094087
1.2078011
1.2051608
1.2035319
1.1976408
1.1966568
1.1874071
1.1864414
1.1783576
1.1772455
1.1715521
1.1723688
1.166146
1.1687749
1.1620339
1.1584468
1.1551073
1.1454775
1.1439818
1.1345295
1.1327517
1.1265147
1.124469
1.1191349
1.1170903
1.1093468
1.105745
1.0955292
1.0888411
1.076698
1.065955
1.0509517
1.0341462
1.0166269
0.99504584
0.97937751
0.9636163
0.94643948
0.94135003
0.92114571
0.9269536
0.91005307
0.91236446
0.92703547
0.91094598
0.9447213
0.92798466
0.94946481
0.97892734
0.97177338
1.0021393
1.0291711
1.0316085
1.0563973
1.0860163
1.1054539
1.1299524
1.1643471
1.1989111
1.2626088
1.2782656
1.3666247
1.3999764
2.1237472
1.9921998
4.0166082
3.5392425
3.2901441
3.1724796
3.3218993
3.4832239
4.440712
3.9566413
2.1111369
1.302477
1.7492623
1.4855868
0.68367466
0.78914464
0.6522478
0.67860084
0.42710974
0.56579251
0.89472298
1.0922114
1.1271016
1.1800247
1.2643033
1.4118498
1.3892678
1.3210029
1.3757617
1.4653708
1.8288319
1.6780742
1.8002305
1.9007409
2.1620766
2.2096895
2.10518
2.1831414
2.2997845
2.4515279
2.6274002
2.9730487
3.2269889
3.0523211
2.6736203
2.6584988
2.7788318
2.9956127
3.1373591
3.069446
2.9815481
3.1087268
3.3140138
3.5603796
3.9962164
4.2891662
3.9926093
3.3685205
3.1820004
3.2879349
3.4728156
4.0103791
3.9228456
3.3929015
3.1368775
3.137212
3.3252382
3.5437168
4.1141468
1.7619514
1.5277965
1.4915112
1.4122646
1.351269
1.3016092
1.1385931
0.83630607
0.51651573
0.4981415
0.83619737
1.1391848
1.420652
1.7074441
1.9958809
2.4110332
2.4025309
2.4192908
2.5308965
2.684052
2.8507879
3.0280692
3.2185863
3.4209366
3.6975409
3.6894842
3.6706628
3.7215089
3.8240111
3.9533197
4.1012346
4.2664711
4.4506648
4.6608844
4.9033125
5.2501057
5.2577659
4.8676599
4.6617754
4.5480652
4.4971883
4.4696749
4.4768145
4.5242962
4.6073547
4.7259135
4.8818763
5.1014978
4.9587038
4.6254859
4.4524026
4.3264438
4.2411905
4.1769406
4.1316817
4.1065545
4.1110254
4.1458287
4.2084127
4.2992771
4.4188966
4.5660836
4.6862711
4.1735881
3.9949502
3.8358377
3.7016996
3.5816871
3.4764416
3.3887095
3.3196718
3.2690919
3.2348137
3.2162501
3.2284571
3.2672396
3.3305232
3.4195181
3.5303288
3.6881208
3.9366353
)
;
    }
    Outlet
    {
        type            calculated;
        value           uniform 0;
    }
}


// ************************************************************************* //
