/*--------------------------------*- C++ -*----------------------------------*\
| =========                 |                                                 |
| \\      /  F ield         | OpenFOAM: The Open Source CFD Toolbox           |
|  \\    /   O peration     | Version:  v2006                                 |
|   \\  /    A nd           | Website:  www.openfoam.com                      |
|    \\/     M anipulation  |                                                 |
\*---------------------------------------------------------------------------*/
FoamFile
{
    version     2.0;
    format      ascii;
    class       volScalarField;
    location    "6000";
    object      alphat;
}
// * * * * * * * * * * * * * * * * * * * * * * * * * * * * * * * * * * * * * //

dimensions      [1 -1 -1 0 0 0 0];


internalField   nonuniform List<scalar> 
21256
(
2.4281431e-09
1.5072463e-08
6.1525223e-08
8.7910707e-08
9.53551e-08
9.5116862e-08
9.3993547e-08
9.346556e-08
9.3351198e-08
9.3361316e-08
9.3379576e-08
9.3386198e-08
9.338784e-08
9.3388394e-08
9.3392063e-08
9.3395387e-08
9.3399276e-08
9.3400645e-08
9.3400345e-08
9.3394826e-08
9.3385876e-08
9.3381649e-08
9.3380736e-08
9.3380899e-08
9.3378982e-08
9.3375654e-08
9.3372566e-08
9.3370257e-08
9.3368595e-08
9.3366473e-08
9.3363223e-08
9.3358786e-08
9.3352676e-08
9.3346149e-08
9.3341008e-08
9.3335643e-08
3.4346932e-09
2.1929994e-08
7.1642894e-08
9.2912216e-08
9.7074905e-08
9.6213547e-08
9.5297215e-08
9.4972094e-08
9.4929974e-08
9.494853e-08
9.4960553e-08
9.4963522e-08
9.4963513e-08
9.4963086e-08
9.4967376e-08
9.4970015e-08
9.4973805e-08
9.4974101e-08
9.4973879e-08
9.4968139e-08
9.4957464e-08
9.4952529e-08
9.495082e-08
9.4950681e-08
9.4948443e-08
9.494479e-08
9.4941283e-08
9.4938406e-08
9.4936183e-08
9.4933775e-08
9.4930224e-08
9.4925549e-08
9.4918908e-08
9.4911176e-08
9.4905184e-08
9.4898274e-08
5.0682562e-09
3.04689e-08
8.0785866e-08
9.6634761e-08
9.8579652e-08
9.7513267e-08
9.6835303e-08
9.6660758e-08
9.6659002e-08
9.6676641e-08
9.6683037e-08
9.6683067e-08
9.6681646e-08
9.6680376e-08
9.6685504e-08
9.6687528e-08
9.669108e-08
9.668958e-08
9.6690279e-08
9.6683735e-08
9.6672759e-08
9.6666461e-08
9.6664261e-08
9.66637e-08
9.6661322e-08
9.6657287e-08
9.6653645e-08
9.665034e-08
9.6647684e-08
9.6645035e-08
9.6641376e-08
9.6636688e-08
9.6629927e-08
9.6621146e-08
9.6614611e-08
9.660665e-08
7.546272e-09
4.101617e-08
8.8949899e-08
9.9765238e-08
1.0009933e-07
9.9056343e-08
9.8621224e-08
9.8551177e-08
9.8565736e-08
9.8576855e-08
9.8578672e-08
9.8576715e-08
9.8574883e-08
9.8573143e-08
9.8578483e-08
9.8580941e-08
9.8583187e-08
9.8580077e-08
9.8581786e-08
9.8574421e-08
9.8563817e-08
9.8556473e-08
9.8553526e-08
9.8553007e-08
9.8550176e-08
9.8545992e-08
9.854223e-08
9.85389e-08
9.8535942e-08
9.8533228e-08
9.8529645e-08
9.8525222e-08
9.8518912e-08
9.8509321e-08
9.85027e-08
9.8494092e-08
1.1305652e-08
5.339246e-08
9.5344562e-08
1.0238628e-07
1.017435e-07
1.0090603e-07
1.0067788e-07
1.0066528e-07
1.006781e-07
1.0068237e-07
1.0068155e-07
1.0067864e-07
1.006763e-07
1.0067419e-07
1.0067943e-07
1.0068284e-07
1.0068395e-07
1.0067861e-07
1.0068157e-07
1.0067305e-07
1.0066403e-07
1.0065631e-07
1.0065239e-07
1.006523e-07
1.0064905e-07
1.0064479e-07
1.0064107e-07
1.0063801e-07
1.006352e-07
1.0063269e-07
1.0062943e-07
1.0062561e-07
1.006205e-07
1.0061053e-07
1.0060441e-07
1.0059579e-07
1.6875645e-08
6.7188716e-08
9.9317843e-08
1.0455007e-07
1.0363428e-07
1.0311167e-07
1.0302617e-07
1.0303361e-07
1.030382e-07
1.0303865e-07
1.0303598e-07
1.0303247e-07
1.0302975e-07
1.0302737e-07
1.0303254e-07
1.0303718e-07
1.0303737e-07
1.0302872e-07
1.030335e-07
1.0302332e-07
1.0301754e-07
1.0301026e-07
1.0300572e-07
1.0300571e-07
1.0300268e-07
1.0299844e-07
1.0299497e-07
1.0299232e-07
1.0299031e-07
1.0298851e-07
1.0298587e-07
1.0298301e-07
1.0297999e-07
1.0297035e-07
1.0296548e-07
1.0295766e-07
2.5010005e-08
8.1801582e-08
1.0460977e-07
1.0656326e-07
1.059128e-07
1.057125e-07
1.0569798e-07
1.0570228e-07
1.0570108e-07
1.0570006e-07
1.0569585e-07
1.0569209e-07
1.0568925e-07
1.056867e-07
1.0569157e-07
1.0569846e-07
1.0569729e-07
1.0568387e-07
1.056918e-07
1.0568012e-07
1.0567838e-07
1.0567228e-07
1.0566785e-07
1.0566717e-07
1.0566551e-07
1.0566171e-07
1.0565863e-07
1.056568e-07
1.0565617e-07
1.056556e-07
1.0565415e-07
1.0565269e-07
1.0565234e-07
1.0564443e-07
1.0564167e-07
1.056357e-07
3.6290265e-08
9.6530797e-08
1.086782e-07
1.0904926e-07
1.0877316e-07
1.0872762e-07
1.0872699e-07
1.0872501e-07
1.0872191e-07
1.0872112e-07
1.0871604e-07
1.0871199e-07
1.0870926e-07
1.0870685e-07
1.0871038e-07
1.0872258e-07
1.0871831e-07
1.0870031e-07
1.087092e-07
1.0869989e-07
1.0870161e-07
1.0869675e-07
1.0869305e-07
1.0869249e-07
1.0869426e-07
1.0869131e-07
1.0868916e-07
1.086886e-07
1.0868901e-07
1.0868856e-07
1.0868922e-07
1.0868986e-07
1.0869115e-07
1.0868773e-07
1.0868759e-07
1.0868463e-07
5.0984542e-08
1.1034911e-07
1.1231712e-07
1.1214462e-07
1.1210872e-07
1.1210984e-07
1.1210772e-07
1.1210407e-07
1.1210123e-07
1.1210281e-07
1.1209812e-07
1.1209411e-07
1.1209174e-07
1.1208995e-07
1.1209101e-07
1.1210522e-07
1.1209805e-07
1.1208565e-07
1.1208997e-07
1.1208702e-07
1.1208903e-07
1.1208662e-07
1.1208424e-07
1.1208451e-07
1.1208888e-07
1.1208829e-07
1.1208819e-07
1.1208842e-07
1.120893e-07
1.1209045e-07
1.1209298e-07
1.1209379e-07
1.1209805e-07
1.1209856e-07
1.1210056e-07
1.121016e-07
8.4325216e-08
8.4327092e-08
8.4330023e-08
8.4335949e-08
8.4341675e-08
8.4347496e-08
8.4352753e-08
8.4357102e-08
8.4360575e-08
8.4363674e-08
8.4366764e-08
8.4370091e-08
8.4373307e-08
8.4375546e-08
8.4376623e-08
8.4378247e-08
8.4381583e-08
8.4385145e-08
8.4386286e-08
8.4384767e-08
8.4382283e-08
8.4379769e-08
8.4373429e-08
8.4355504e-08
8.4337873e-08
8.4409607e-08
8.476765e-08
8.5554152e-08
8.63313e-08
8.5282255e-08
7.893534e-08
6.1841073e-08
3.3013411e-08
8.6702247e-09
1.8836051e-09
2.1944699e-09
8.4902907e-08
8.490584e-08
8.4910748e-08
8.4916404e-08
8.4922313e-08
8.4928105e-08
8.4933197e-08
8.4937345e-08
8.4940647e-08
8.494364e-08
8.494669e-08
8.4950051e-08
8.4953261e-08
8.4955358e-08
8.4956343e-08
8.4958107e-08
8.4961649e-08
8.4965306e-08
8.4966374e-08
8.4964763e-08
8.4962052e-08
8.4958777e-08
8.495161e-08
8.4935793e-08
8.4925048e-08
8.4997078e-08
8.5321546e-08
8.6038354e-08
8.6825512e-08
8.6130233e-08
8.0465897e-08
6.5233747e-08
3.7007001e-08
1.0385654e-08
1.8771504e-09
1.8558919e-09
8.5553255e-08
8.5557117e-08
8.5562598e-08
8.5568374e-08
8.5574428e-08
8.5580288e-08
8.5585343e-08
8.5589375e-08
8.5592571e-08
8.5595465e-08
8.5598477e-08
8.5601846e-08
8.5605055e-08
8.5607017e-08
8.5607905e-08
8.5609738e-08
8.5613533e-08
8.5617449e-08
8.5618631e-08
8.5616928e-08
8.5614104e-08
8.5611336e-08
8.5606226e-08
8.5592465e-08
8.5573272e-08
8.5603533e-08
8.5838218e-08
8.6469956e-08
8.7373045e-08
8.735222e-08
8.3266201e-08
7.0126577e-08
4.2791454e-08
1.2956122e-08
2.0465265e-09
1.6308701e-09
8.6285447e-08
8.6290126e-08
8.6295882e-08
8.6301784e-08
8.6307941e-08
8.631379e-08
8.6318701e-08
8.6322536e-08
8.6325554e-08
8.6328315e-08
8.6331273e-08
8.6334666e-08
8.6337841e-08
8.6339603e-08
8.6340349e-08
8.634229e-08
8.6346388e-08
8.6350551e-08
8.6351797e-08
8.635001e-08
8.6346989e-08
8.6344195e-08
8.6340146e-08
8.6329341e-08
8.6310239e-08
8.631854e-08
8.6481171e-08
8.7002971e-08
8.7904443e-08
8.8325859e-08
8.5532204e-08
7.4644624e-08
4.8901921e-08
1.6316861e-08
2.4186068e-09
1.4704533e-09
8.7113992e-08
8.7119205e-08
8.7125083e-08
8.7131099e-08
8.7137333e-08
8.7143113e-08
8.7147816e-08
8.7151404e-08
8.7154196e-08
8.7156791e-08
8.7159687e-08
8.7163105e-08
8.7166208e-08
8.7167699e-08
8.7168273e-08
8.7170344e-08
8.7174817e-08
8.7179259e-08
8.7180565e-08
8.7178708e-08
8.7175514e-08
8.71727e-08
8.7169558e-08
8.7161418e-08
8.7143375e-08
8.7134494e-08
8.723201e-08
8.7636143e-08
8.8484588e-08
8.9254514e-08
8.7668467e-08
7.9021862e-08
5.557759e-08
2.0731841e-08
2.9923783e-09
1.3777e-09
8.8056505e-08
8.8062025e-08
8.8067969e-08
8.8074064e-08
8.8080334e-08
8.8085953e-08
8.8090361e-08
8.8093621e-08
8.8096119e-08
8.8098495e-08
8.8101315e-08
8.8104731e-08
8.8107681e-08
8.810879e-08
8.8109161e-08
8.8111384e-08
8.8116324e-08
8.8121064e-08
8.8122387e-08
8.8120469e-08
8.8117102e-08
8.8114164e-08
8.8111596e-08
8.8105985e-08
8.8091186e-08
8.8073428e-08
8.8119017e-08
8.8403726e-08
8.9137449e-08
9.0104928e-08
8.9558324e-08
8.2697941e-08
6.2601612e-08
2.6251558e-08
3.7835913e-09
1.3505033e-09
8.913545e-08
8.9141159e-08
8.9147096e-08
8.9153237e-08
8.9159473e-08
8.916482e-08
8.9168815e-08
8.9171661e-08
8.917377e-08
8.9175889e-08
8.917859e-08
8.9181955e-08
8.91846e-08
8.9185216e-08
8.9185366e-08
8.9187792e-08
8.919333e-08
8.9198389e-08
8.9199641e-08
8.9197694e-08
8.9194166e-08
8.9191092e-08
8.9188797e-08
8.918528e-08
8.9174476e-08
8.9154346e-08
8.9162951e-08
8.9338669e-08
8.9917957e-08
9.0921265e-08
9.117775e-08
8.663211e-08
6.9774429e-08
3.3232504e-08
5.0559286e-09
1.4011064e-09
9.0378922e-08
9.0384782e-08
9.0390608e-08
9.0396777e-08
9.0402873e-08
9.0407816e-08
9.0411261e-08
9.0413598e-08
9.0415212e-08
9.0417062e-08
9.0419563e-08
9.0422782e-08
9.0424892e-08
9.0424932e-08
9.0424877e-08
9.0427568e-08
9.0433913e-08
9.0439241e-08
9.0440262e-08
9.0438341e-08
9.0434651e-08
9.0431489e-08
9.0429148e-08
9.0427219e-08
9.0420499e-08
9.040305e-08
9.0390207e-08
9.0475944e-08
9.08849e-08
9.1809952e-08
9.260162e-08
9.0013577e-08
7.6875343e-08
4.1732994e-08
7.0401489e-09
1.5448574e-09
9.1819524e-08
9.1825526e-08
9.1831115e-08
9.1837314e-08
9.1843166e-08
9.1847558e-08
9.1850376e-08
9.1852129e-08
9.1853219e-08
9.1854814e-08
9.185705e-08
9.1859976e-08
9.1861394e-08
9.1860865e-08
9.1860745e-08
9.1863841e-08
9.1871156e-08
9.1876594e-08
9.1877132e-08
9.1875421e-08
9.1871532e-08
9.1868389e-08
9.1865632e-08
9.1864819e-08
9.1861376e-08
9.1849667e-08
9.1829148e-08
9.1851377e-08
9.2093031e-08
9.2841545e-08
9.3930519e-08
9.2995666e-08
8.3482249e-08
5.1676088e-08
1.0558707e-08
1.8315233e-09
2.440904e-09
2.5208746e-09
2.5977735e-09
2.6634376e-09
2.7212693e-09
2.77282e-09
2.819928e-09
2.8616806e-09
2.8999535e-09
2.930669e-09
2.9585726e-09
2.9862804e-09
3.0133597e-09
3.0376906e-09
3.0564768e-09
3.066522e-09
3.0642896e-09
3.0458031e-09
3.0066932e-09
2.9421942e-09
2.8475774e-09
2.7180143e-09
2.5505608e-09
2.3438674e-09
2.1026176e-09
1.8340439e-09
1.5427907e-09
1.2396143e-09
9.3248723e-10
6.2816628e-10
3.6928705e-10
1.6126718e-10
2.946018e-11
2.4842432e-11
6.4190183e-11
1.8402897e-10
4.0464153e-10
7.1073806e-10
1.0686818e-09
1.4410402e-09
1.8033594e-09
2.1580309e-09
2.5059848e-09
2.8669808e-09
3.1723988e-09
3.5092364e-09
1.8947942e-09
1.913876e-09
1.942255e-09
2.0000171e-09
2.0755191e-09
2.1582041e-09
2.2420631e-09
2.3212653e-09
2.3945887e-09
2.4583e-09
2.5119174e-09
2.5574059e-09
2.5969997e-09
2.6320839e-09
2.6628692e-09
2.6885298e-09
2.7073599e-09
2.716872e-09
2.7139219e-09
2.6946751e-09
2.6549737e-09
2.5899977e-09
2.495679e-09
2.3658124e-09
2.1919903e-09
1.976227e-09
1.7286025e-09
1.4605757e-09
1.1869083e-09
9.1909543e-10
6.6755006e-10
4.7535355e-10
2.8863675e-10
1.7084468e-10
1.0659063e-10
1.271195e-10
2.0533394e-10
3.4301968e-10
5.308572e-10
7.5500021e-10
9.9746236e-10
1.2482331e-09
1.5024841e-09
1.7680655e-09
2.0212838e-09
2.2851872e-09
6.8404834e-09
5.7704415e-09
4.8923634e-09
4.1101627e-09
3.4864076e-09
2.9939779e-09
2.6199984e-09
2.345893e-09
2.1621466e-09
2.0535559e-09
2.0032219e-09
1.9964361e-09
2.0211338e-09
2.0674917e-09
2.1274148e-09
2.1942807e-09
2.262692e-09
2.3282063e-09
2.3870847e-09
2.4359954e-09
2.4718651e-09
2.4915929e-09
2.492234e-09
2.4706822e-09
2.4226846e-09
2.3460924e-09
2.237478e-09
2.0947909e-09
1.9237304e-09
1.7330601e-09
1.5322957e-09
1.3294891e-09
1.1395032e-09
9.6127608e-10
8.0108089e-10
6.7559927e-10
5.9153025e-10
5.3863354e-10
5.3816413e-10
5.6516238e-10
6.1621973e-10
6.8536542e-10
7.7058449e-10
8.6958546e-10
9.7766432e-10
1.0969386e-09
2.5733459e-08
2.0163762e-08
1.5717472e-08
1.2383971e-08
9.9132558e-09
8.1245092e-09
6.7970774e-09
5.7694599e-09
4.9239336e-09
4.1901626e-09
3.5859532e-09
3.100003e-09
2.7167302e-09
2.4251863e-09
2.213552e-09
2.0696969e-09
1.9819249e-09
1.9392953e-09
1.9321056e-09
1.9516309e-09
1.9899438e-09
2.0398827e-09
2.0951147e-09
2.1498029e-09
2.1998456e-09
2.2366534e-09
2.2638743e-09
2.2807105e-09
2.2816052e-09
2.2629682e-09
2.2254907e-09
2.1665464e-09
2.0936361e-09
2.0113226e-09
1.9113969e-09
1.802236e-09
1.7047303e-09
1.6195403e-09
1.5436657e-09
1.4795513e-09
1.4371548e-09
1.3997246e-09
1.3706221e-09
1.3497735e-09
1.3367696e-09
1.3328517e-09
5.3878812e-08
4.6097384e-08
3.8438214e-08
3.1557577e-08
2.5596258e-08
2.0643837e-08
1.6651743e-08
1.35836e-08
1.1233684e-08
9.3651885e-09
7.9324084e-09
6.7882312e-09
5.8553087e-09
5.0795625e-09
4.4342861e-09
3.8751144e-09
3.4131195e-09
3.0329887e-09
2.7225384e-09
2.4754908e-09
2.2845392e-09
2.1425253e-09
2.0422435e-09
1.976887e-09
1.9377253e-09
1.9353415e-09
1.9648423e-09
2.0187268e-09
2.0883791e-09
2.1652053e-09
2.243105e-09
2.3095494e-09
2.3617861e-09
2.3983119e-09
2.4265959e-09
2.4422882e-09
2.4448569e-09
2.4389149e-09
2.4279206e-09
2.4149403e-09
2.399526e-09
2.3826352e-09
2.3651465e-09
2.3478966e-09
2.3313239e-09
2.3176242e-09
7.3867974e-08
6.8096977e-08
6.1413822e-08
5.4328683e-08
4.7231552e-08
4.0440683e-08
3.4199465e-08
2.8682667e-08
2.3966493e-08
1.9962376e-08
1.6669758e-08
1.3997418e-08
1.1839058e-08
1.0104921e-08
8.6853822e-09
7.5287241e-09
6.5870792e-09
5.814528e-09
5.17418e-09
4.6312032e-09
4.1733094e-09
3.7699285e-09
3.4290885e-09
3.1412669e-09
2.8989362e-09
2.6981373e-09
2.5355542e-09
2.4082186e-09
2.3122626e-09
2.2468184e-09
2.2169922e-09
2.2133686e-09
2.2274365e-09
2.2521821e-09
2.2835223e-09
2.3178069e-09
2.3522612e-09
2.3853674e-09
2.4160916e-09
2.4443501e-09
2.4706925e-09
2.4971155e-09
2.5235122e-09
2.5499998e-09
2.5749719e-09
2.6028901e-09
8.2987947e-08
8.0112756e-08
7.6165179e-08
7.1308512e-08
6.5762891e-08
5.9782383e-08
5.3614317e-08
4.7461246e-08
4.1541752e-08
3.6021064e-08
3.1023439e-08
2.6613524e-08
2.2793495e-08
1.9543339e-08
1.6769e-08
1.4435735e-08
1.2495537e-08
1.0889012e-08
9.5670445e-09
8.4781304e-09
7.5820981e-09
6.8347995e-09
6.2099622e-09
5.6863503e-09
5.2462234e-09
4.8762484e-09
4.5657781e-09
4.3033111e-09
4.0894145e-09
3.9094456e-09
3.7731617e-09
3.6723152e-09
3.6038629e-09
3.5647059e-09
3.5511835e-09
3.5601788e-09
3.5861072e-09
3.6259852e-09
3.6783019e-09
3.7400125e-09
3.8079084e-09
3.8779972e-09
3.9498709e-09
4.0336392e-09
4.1180739e-09
4.2148569e-09
8.5781155e-08
8.4792342e-08
8.3070157e-08
8.0532687e-08
7.7270959e-08
7.3304964e-08
6.8778614e-08
6.3849889e-08
5.8676205e-08
5.3383798e-08
4.8114971e-08
4.3018616e-08
3.8225176e-08
3.3821797e-08
2.9836551e-08
2.6274249e-08
2.3127281e-08
2.037558e-08
1.7997202e-08
1.5946501e-08
1.4192966e-08
1.2710415e-08
1.1463809e-08
1.0420167e-08
9.548414e-09
8.8231339e-09
8.2299883e-09
7.7509862e-09
7.3684399e-09
7.0715998e-09
6.8512904e-09
6.700761e-09
6.6148109e-09
6.5890916e-09
6.6192786e-09
6.6966013e-09
6.8218612e-09
6.9915977e-09
7.2014949e-09
7.4469833e-09
7.7236052e-09
8.02574e-09
8.352075e-09
8.7005138e-09
9.0478858e-09
9.4538205e-09
8.5619933e-08
8.5617209e-08
8.5283758e-08
8.4449435e-08
8.3017414e-08
8.0958679e-08
7.828974e-08
7.5092345e-08
7.1517183e-08
6.7565754e-08
6.3416001e-08
5.9117949e-08
5.4751557e-08
5.0412156e-08
4.6179978e-08
4.2124859e-08
3.8313718e-08
3.4782024e-08
3.154656e-08
2.8609893e-08
2.5967879e-08
2.3614986e-08
2.1540642e-08
1.9732405e-08
1.8173832e-08
1.6843623e-08
1.5722708e-08
1.4799502e-08
1.4060419e-08
1.3497179e-08
1.3099747e-08
1.2860973e-08
1.2776089e-08
1.2842487e-08
1.3054015e-08
1.3415767e-08
1.3925378e-08
1.4577314e-08
1.5363515e-08
1.6274e-08
1.7296183e-08
1.8417081e-08
1.9617576e-08
2.0899345e-08
2.2182211e-08
2.368431e-08
8.4766402e-08
8.4953002e-08
8.5135881e-08
8.5161857e-08
8.4895023e-08
8.4239695e-08
8.3136284e-08
8.1575633e-08
7.9567715e-08
7.7163682e-08
7.4410788e-08
7.1441115e-08
6.8273058e-08
6.4986991e-08
6.167227e-08
5.8323357e-08
5.4980735e-08
5.169089e-08
4.8492548e-08
4.5417163e-08
4.2489754e-08
3.9730767e-08
3.7157517e-08
3.4800434e-08
3.2679385e-08
3.0803893e-08
2.9179953e-08
2.7814546e-08
2.6712963e-08
2.5888023e-08
2.5351186e-08
2.5116147e-08
2.5196632e-08
2.5612235e-08
2.6387379e-08
2.7530711e-08
2.9038676e-08
3.0897813e-08
3.3089341e-08
3.5588901e-08
3.8356593e-08
4.1357404e-08
4.4509119e-08
4.7814398e-08
5.1097172e-08
5.4795402e-08
8.4164205e-08
8.4168357e-08
8.4312507e-08
8.4520325e-08
8.4697821e-08
8.4750529e-08
8.4597222e-08
8.4178104e-08
8.3453569e-08
8.2418498e-08
8.1075609e-08
7.9446682e-08
7.7570308e-08
7.5491678e-08
7.3246369e-08
7.0936679e-08
6.8547004e-08
6.6129539e-08
6.3717939e-08
6.1347188e-08
5.9045229e-08
5.6839277e-08
5.472289e-08
5.2703338e-08
5.080306e-08
4.9049094e-08
4.7472161e-08
4.6110348e-08
4.5001962e-08
4.4200539e-08
4.3761259e-08
4.3739457e-08
4.4207861e-08
4.5212712e-08
4.6799606e-08
4.8982037e-08
5.1836548e-08
5.539599e-08
5.9608317e-08
6.4168166e-08
6.9086476e-08
7.4298324e-08
7.9707554e-08
8.5277711e-08
9.0765952e-08
9.6709976e-08
8.3930455e-08
8.3726103e-08
8.3655715e-08
8.3711108e-08
8.3859846e-08
8.4051882e-08
8.4230134e-08
8.4338093e-08
8.432688e-08
8.4159893e-08
8.3822458e-08
8.3261038e-08
8.2558031e-08
8.1702197e-08
8.0629964e-08
7.9398174e-08
7.8044983e-08
7.6591102e-08
7.5097174e-08
7.3550662e-08
7.1982728e-08
7.0424221e-08
6.8897176e-08
6.7423361e-08
6.6024497e-08
6.4723497e-08
6.3549095e-08
6.2527495e-08
6.1714211e-08
6.1166525e-08
6.0989449e-08
6.1333761e-08
6.2393479e-08
6.4066845e-08
6.6482692e-08
6.9690422e-08
7.3687088e-08
7.8426449e-08
8.3825641e-08
8.9779189e-08
9.6165635e-08
1.0286245e-07
1.0974045e-07
1.1673014e-07
1.2359511e-07
1.3077742e-07
8.3898569e-08
8.3589456e-08
8.33567e-08
8.3217841e-08
8.3178281e-08
8.322946e-08
8.3351172e-08
8.3515308e-08
8.3691145e-08
8.3845894e-08
8.3963649e-08
8.3983973e-08
8.3913309e-08
8.379199e-08
8.3554844e-08
8.3271676e-08
8.2960381e-08
8.2551595e-08
8.2041244e-08
8.1427709e-08
8.0704377e-08
7.9932446e-08
7.9117124e-08
7.8293269e-08
7.7465417e-08
7.6663763e-08
7.5906098e-08
7.5290151e-08
7.4773245e-08
7.4547598e-08
7.4709716e-08
7.5379013e-08
7.6684015e-08
7.8748265e-08
8.166069e-08
8.5463003e-08
9.0142863e-08
9.563662e-08
1.0183867e-07
1.0861445e-07
1.158154e-07
1.2329511e-07
1.3091081e-07
1.3856862e-07
1.4607263e-07
1.5370724e-07
8.3920263e-08
8.359105e-08
8.3297478e-08
8.3051566e-08
8.286551e-08
8.2747501e-08
8.2699725e-08
8.2718062e-08
8.279371e-08
8.2913033e-08
8.3064775e-08
8.3230717e-08
8.3391479e-08
8.3546715e-08
8.3658274e-08
8.3709161e-08
8.3752968e-08
8.3774296e-08
8.3842751e-08
8.397774e-08
8.4087874e-08
8.4151699e-08
8.4153567e-08
8.408983e-08
8.3970526e-08
8.3796214e-08
8.3600423e-08
8.342665e-08
8.3344971e-08
8.3458218e-08
8.3946653e-08
8.4797508e-08
8.6111059e-08
8.8273551e-08
9.1317875e-08
9.5280862e-08
1.0014945e-07
1.0585353e-07
1.122756e-07
1.1926763e-07
1.2666846e-07
1.3432217e-07
1.4208164e-07
1.4984088e-07
1.5744208e-07
1.6502509e-07
8.3936602e-08
8.3616701e-08
8.3321229e-08
8.3050627e-08
8.2809332e-08
8.2603518e-08
8.2439159e-08
8.2320616e-08
8.2250089e-08
8.2227343e-08
8.2250123e-08
8.2316162e-08
8.242004e-08
8.2556502e-08
8.2718905e-08
8.2894272e-08
8.3081929e-08
8.327369e-08
8.3450894e-08
8.3634839e-08
8.3819637e-08
8.3992767e-08
8.4174341e-08
8.4346996e-08
8.4483025e-08
8.4635155e-08
8.4726406e-08
8.4828659e-08
8.4958945e-08
8.5196347e-08
8.5712818e-08
8.6652913e-08
8.8185407e-08
9.0470158e-08
9.3630206e-08
9.7730874e-08
1.0276901e-07
1.0867534e-07
1.1532708e-07
1.2256841e-07
1.3022852e-07
1.3814505e-07
1.461623e-07
1.5417433e-07
1.6201781e-07
1.6983267e-07
8.3942463e-08
8.3630439e-08
8.3345501e-08
8.3082908e-08
8.2840575e-08
8.2618582e-08
8.2418623e-08
8.2243293e-08
8.2095455e-08
8.1977881e-08
8.189268e-08
8.1841846e-08
8.1827142e-08
8.184925e-08
8.1909276e-08
8.200743e-08
8.2141819e-08
8.2310356e-08
8.2512128e-08
8.2738458e-08
8.2978696e-08
8.3223417e-08
8.3469323e-08
8.3707351e-08
8.3926827e-08
8.4113196e-08
8.4271365e-08
8.4428324e-08
8.4640833e-08
8.4994411e-08
8.5617689e-08
8.6676268e-08
8.8352012e-08
9.0819004e-08
9.4215191e-08
9.8618403e-08
1.0403265e-07
1.103887e-07
1.175561e-07
1.2536677e-07
1.3363279e-07
1.421785e-07
1.5082718e-07
1.5947495e-07
1.6791375e-07
1.7638022e-07
8.3944719e-08
8.3634654e-08
8.3354851e-08
8.3100578e-08
8.28682e-08
8.2655083e-08
8.2459652e-08
8.2281341e-08
8.2120431e-08
8.1977923e-08
8.1855316e-08
8.1754441e-08
8.16776e-08
8.1627106e-08
8.1606226e-08
8.1615309e-08
8.1668276e-08
8.1717538e-08
8.1850053e-08
8.2011244e-08
8.2195865e-08
8.2406537e-08
8.263396e-08
8.2865057e-08
8.3088609e-08
8.3296344e-08
8.3492807e-08
8.3702843e-08
8.3982274e-08
8.4425456e-08
8.5171226e-08
8.6394729e-08
8.8292456e-08
9.105725e-08
9.4847708e-08
9.9759979e-08
1.0580936e-07
1.1292731e-07
1.2097185e-07
1.2975478e-07
1.3905903e-07
1.4868471e-07
1.5842002e-07
1.6816302e-07
1.7763214e-07
1.8722229e-07
8.3946054e-08
8.3636019e-08
8.3356986e-08
8.3105088e-08
8.2877299e-08
8.2671022e-08
8.2484111e-08
8.2314922e-08
8.2162371e-08
8.202595e-08
8.1905741e-08
8.1802361e-08
8.1716978e-08
8.1651217e-08
8.1607234e-08
8.1587491e-08
8.1593235e-08
8.1638483e-08
8.1689792e-08
8.180804e-08
8.1935131e-08
8.2089835e-08
8.2266665e-08
8.2456732e-08
8.265203e-08
8.2849357e-08
8.3057199e-08
8.3304954e-08
8.3653521e-08
8.420476e-08
8.5108217e-08
8.6554496e-08
8.8761788e-08
9.1950494e-08
9.6309746e-08
1.0196362e-07
1.0894551e-07
1.1718913e-07
1.2653593e-07
1.3676555e-07
1.4761312e-07
1.588393e-07
1.7017514e-07
1.8151447e-07
1.92455e-07
2.0363499e-07
8.3945532e-08
8.3635871e-08
8.3356955e-08
8.3105199e-08
8.2878018e-08
8.2673279e-08
8.2489199e-08
8.2324323e-08
8.2177522e-08
8.204805e-08
8.1935573e-08
8.1840184e-08
8.1762434e-08
8.1703342e-08
8.1664249e-08
8.1647242e-08
8.1653174e-08
8.1686913e-08
8.1747557e-08
8.1836541e-08
8.1956668e-08
8.2095004e-08
8.2255978e-08
8.2433376e-08
8.2623465e-08
8.2828123e-08
8.3061793e-08
8.3360905e-08
8.3794886e-08
8.4476837e-08
8.5569842e-08
8.7286351e-08
8.9875135e-08
9.3596077e-08
9.8683074e-08
1.0530348e-07
1.1352154e-07
1.2328134e-07
1.3440561e-07
1.4662939e-07
1.5962339e-07
1.7309156e-07
1.8666331e-07
2.0022204e-07
2.1321104e-07
2.2668636e-07
8.3942729e-08
8.3633592e-08
8.3355085e-08
8.310353e-08
8.2876368e-08
8.26716e-08
8.2487637e-08
8.2323237e-08
8.2177496e-08
8.2049846e-08
8.1940074e-08
8.1848329e-08
8.1775158e-08
8.1721493e-08
8.1688612e-08
8.1678136e-08
8.169184e-08
8.1731006e-08
8.1798784e-08
8.1890691e-08
8.2024921e-08
8.2163166e-08
8.2334154e-08
8.2524819e-08
8.2734783e-08
8.2970181e-08
8.3250923e-08
8.362049e-08
8.4157761e-08
8.498887e-08
8.6295452e-08
8.8318344e-08
9.1346671e-08
9.5694402e-08
1.0165956e-07
1.0947557e-07
1.1926199e-07
1.3099221e-07
1.4447214e-07
1.5939766e-07
1.7535417e-07
1.9192629e-07
2.0858306e-07
2.2529928e-07
2.4132344e-07
2.5814303e-07
8.3939661e-08
8.3630522e-08
8.3352088e-08
8.3100658e-08
8.2873592e-08
8.2668832e-08
8.2484771e-08
8.2320196e-08
8.2174253e-08
8.2046461e-08
8.1936703e-08
8.1845235e-08
8.1772704e-08
8.1720139e-08
8.1688925e-08
8.1680745e-08
8.1697463e-08
8.1740924e-08
8.1812091e-08
8.1915154e-08
8.2045101e-08
8.2198503e-08
8.2385879e-08
8.2596631e-08
8.2834081e-08
8.3108457e-08
8.3444761e-08
8.3893369e-08
8.4542904e-08
8.553399e-08
8.7070322e-08
8.942705e-08
9.2943229e-08
9.8003819e-08
1.0499417e-07
1.1424578e-07
1.2597668e-07
1.4020727e-07
1.5677797e-07
1.7536817e-07
1.9537362e-07
2.1624036e-07
2.3743879e-07
2.5909256e-07
2.794526e-07
3.0053211e-07
8.3938092e-08
8.3628602e-08
8.3349884e-08
8.3098242e-08
8.2871036e-08
8.2666179e-08
8.248203e-08
8.2317337e-08
8.2171231e-08
8.2043217e-08
8.1933181e-08
8.1841396e-08
8.1768537e-08
8.1715669e-08
8.1684227e-08
8.1675977e-08
8.1692825e-08
8.1737046e-08
8.1808876e-08
8.1917401e-08
8.2054022e-08
8.2210714e-08
8.2405874e-08
8.2632535e-08
8.2895029e-08
8.3206821e-08
8.3597737e-08
8.4125082e-08
8.4887578e-08
8.6041337e-08
8.7814397e-08
9.0521075e-08
9.4558369e-08
1.0040098e-07
1.0854277e-07
1.1946633e-07
1.335235e-07
1.508349e-07
1.7143929e-07
1.9481447e-07
2.2023161e-07
2.4742666e-07
2.7565733e-07
3.0387947e-07
3.2865514e-07
3.5601365e-07
8.3937258e-08
8.362762e-08
8.3348715e-08
8.3096892e-08
8.286951e-08
8.2664483e-08
8.2480167e-08
8.2315316e-08
8.2169045e-08
8.2040856e-08
8.1930629e-08
8.1838629e-08
8.1765522e-08
8.1712381e-08
8.1680597e-08
8.1672175e-08
8.1688125e-08
8.1734853e-08
8.1795593e-08
8.1910972e-08
8.2048238e-08
8.2214081e-08
8.2419107e-08
8.2658976e-08
8.2942505e-08
8.3287172e-08
8.3727739e-08
8.4328537e-08
8.5198503e-08
8.6509809e-08
8.8515658e-08
9.1572558e-08
9.6141294e-08
1.0280346e-07
1.1218061e-07
1.2497958e-07
1.4166698e-07
1.6274945e-07
1.883312e-07
2.1757908e-07
2.5077726e-07
2.8737942e-07
3.240679e-07
3.5898608e-07
3.9217015e-07
4.3503152e-07
8.3935418e-08
8.3625875e-08
8.334707e-08
8.3095305e-08
8.2867948e-08
8.2662913e-08
8.2478556e-08
8.2313622e-08
8.2167236e-08
8.2038904e-08
8.1928508e-08
8.1836325e-08
8.176303e-08
8.1709703e-08
8.167776e-08
8.1669126e-08
8.168539e-08
8.1730174e-08
8.1801343e-08
8.1911797e-08
8.2049037e-08
8.2216954e-08
8.2427307e-08
8.2678878e-08
8.298162e-08
8.335608e-08
8.3841597e-08
8.4509309e-08
8.547807e-08
8.6935721e-08
8.9160721e-08
9.2552916e-08
9.763934e-08
1.0512142e-07
1.1577161e-07
1.305573e-07
1.5013132e-07
1.7570455e-07
2.0662765e-07
2.4381526e-07
2.8805275e-07
3.3486389e-07
3.7980829e-07
4.3038622e-07
4.8844018e-07
5.5440694e-07
8.3932523e-08
8.3623053e-08
8.3344352e-08
8.3092733e-08
8.2865525e-08
8.2660619e-08
8.2476355e-08
8.2311474e-08
8.2165087e-08
8.2036698e-08
8.1926196e-08
8.183386e-08
8.1760378e-08
8.170685e-08
8.1674707e-08
8.1665973e-08
8.1681918e-08
8.1728321e-08
8.1791872e-08
8.1908227e-08
8.2048399e-08
8.2222466e-08
8.2439436e-08
8.2700947e-08
8.3019883e-08
8.3419969e-08
8.3944598e-08
8.4671064e-08
8.5727438e-08
8.7316174e-08
8.9739628e-08
9.344229e-08
9.9008438e-08
1.0729035e-07
1.1916936e-07
1.3598413e-07
1.5871332e-07
1.8886586e-07
2.256723e-07
2.7450993e-07
3.2898621e-07
3.8559367e-07
4.5006817e-07
5.4102562e-07
6.267516e-07
7.1065972e-07
8.3929422e-08
8.3619905e-08
8.3341225e-08
8.3089665e-08
8.2862555e-08
8.2657775e-08
8.2473648e-08
8.2308886e-08
8.2162591e-08
8.2034247e-08
8.1923731e-08
8.1831324e-08
8.1757716e-08
8.1704016e-08
8.1671687e-08
8.1662711e-08
8.1678839e-08
8.1723717e-08
8.1795781e-08
8.1908005e-08
8.2046115e-08
8.2223664e-08
8.2446348e-08
8.2717653e-08
8.3051753e-08
8.3474904e-08
8.4034125e-08
8.4812111e-08
8.5944993e-08
8.764844e-08
9.0245715e-08
9.4228053e-08
1.0021579e-07
1.0927499e-07
1.222004e-07
1.4125675e-07
1.6683853e-07
2.0134801e-07
2.4638221e-07
3.0724329e-07
3.6722902e-07
4.4716741e-07
5.5408871e-07
6.9016573e-07
7.7479378e-07
9.1693141e-07
8.3926486e-08
8.3616914e-08
8.3338202e-08
8.3086668e-08
8.2859624e-08
8.2654943e-08
8.2470933e-08
8.2306303e-08
8.2160126e-08
8.2031874e-08
8.192141e-08
8.1828995e-08
8.1755313e-08
8.1701473e-08
8.1668936e-08
8.1659789e-08
8.1675415e-08
8.1721722e-08
8.1785735e-08
8.1908891e-08
8.2046157e-08
8.2226748e-08
8.2453133e-08
8.273162e-08
8.3078183e-08
8.3520536e-08
8.4108531e-08
8.4930001e-08
8.6128227e-08
8.7930212e-08
9.0677392e-08
9.4903542e-08
1.0126195e-07
1.1102303e-07
1.2482907e-07
1.4635823e-07
1.7348815e-07
2.1407733e-07
2.6811106e-07
3.3550355e-07
4.0740859e-07
5.3543592e-07
6.8255731e-07
8.360246e-07
9.3082956e-07
1.2649924e-06
8.3923552e-08
8.3614001e-08
8.3335315e-08
8.3083799e-08
8.2856804e-08
8.2652216e-08
8.2468345e-08
8.2303878e-08
8.2157884e-08
8.2029812e-08
8.1919505e-08
8.1827213e-08
8.1753606e-08
8.1699786e-08
8.1667204e-08
8.1657981e-08
8.1673492e-08
8.1719423e-08
8.1786771e-08
8.1918889e-08
8.2043614e-08
8.2226892e-08
8.2457219e-08
8.2742548e-08
8.3099349e-08
8.35589e-08
8.4172208e-08
8.5030101e-08
8.628242e-08
8.8165811e-08
9.1039211e-08
9.546273e-08
1.0216118e-07
1.124535e-07
1.2726169e-07
1.5065483e-07
1.7888208e-07
2.2829276e-07
2.8601258e-07
3.5966818e-07
4.6288066e-07
6.4116915e-07
7.973638e-07
9.6864869e-07
1.1566782e-06
1.797766e-06
8.3920317e-08
8.3610945e-08
8.3332391e-08
8.308098e-08
8.2854063e-08
8.2649556e-08
8.2465784e-08
8.2301452e-08
8.2155611e-08
8.20277e-08
8.1917548e-08
8.1825381e-08
8.1751855e-08
8.1698068e-08
8.166546e-08
8.1656207e-08
8.1671464e-08
8.1718387e-08
8.1779293e-08
8.1924277e-08
8.2043163e-08
8.2228643e-08
8.2461666e-08
8.2751959e-08
8.3117816e-08
8.3587683e-08
8.4221504e-08
8.5111464e-08
8.6410731e-08
8.8363793e-08
9.1345047e-08
9.5938998e-08
1.029371e-07
1.1362023e-07
1.295411e-07
1.5350061e-07
1.8502031e-07
2.4172421e-07
2.9762066e-07
3.8863255e-07
5.3174079e-07
7.3527761e-07
8.8647115e-07
1.1299785e-06
1.5032538e-06
2.3604524e-06
8.3916355e-08
8.3607351e-08
8.3329116e-08
8.3077934e-08
8.285119e-08
8.2646829e-08
8.2463209e-08
8.2299052e-08
8.2153432e-08
8.202578e-08
8.1915912e-08
8.1824046e-08
8.1750822e-08
8.1697319e-08
8.1664967e-08
8.1655931e-08
8.167143e-08
8.1718038e-08
8.1783221e-08
8.1924194e-08
8.2043486e-08
8.2231549e-08
8.2467422e-08
8.2761745e-08
8.3135211e-08
8.3612983e-08
8.4259711e-08
8.5172808e-08
8.6508682e-08
8.8515846e-08
9.1578087e-08
9.6291153e-08
1.0350973e-07
1.1460055e-07
1.312646e-07
1.5563928e-07
1.9278634e-07
2.5051184e-07
3.0741313e-07
4.255402e-07
5.97599e-07
8.0442719e-07
9.7176144e-07
1.3558208e-06
2.0195492e-06
2.7066456e-06
8.3911571e-08
8.3603125e-08
8.3325374e-08
8.3074568e-08
8.2848082e-08
8.2643884e-08
8.2460356e-08
8.229626e-08
8.215068e-08
8.2023068e-08
8.1913245e-08
8.1821418e-08
8.1748224e-08
8.1694748e-08
8.1662426e-08
8.165343e-08
8.1669002e-08
8.1716003e-08
8.1778726e-08
8.1923578e-08
8.2043388e-08
8.223255e-08
8.2470793e-08
8.2769492e-08
8.3148271e-08
8.3643724e-08
8.4305706e-08
8.5237163e-08
8.6602675e-08
8.8659783e-08
9.1810912e-08
9.6658007e-08
1.041675e-07
1.1540381e-07
1.3250827e-07
1.5860318e-07
2.0022496e-07
2.5415418e-07
3.2071507e-07
4.6380561e-07
6.5001149e-07
8.5527074e-07
1.0739351e-06
1.6500637e-06
2.6934804e-06
2.7263982e-06
8.3906107e-08
8.3598206e-08
8.3321041e-08
8.3070772e-08
8.2844741e-08
8.2640919e-08
8.2457715e-08
8.2293922e-08
8.2148667e-08
8.2021422e-08
8.1912021e-08
8.1820676e-08
8.1748012e-08
8.1695087e-08
8.1663325e-08
8.1654848e-08
8.1670948e-08
8.1717941e-08
8.1784262e-08
8.1922188e-08
8.2047432e-08
8.2238213e-08
8.2477467e-08