/*--------------------------------*- C++ -*----------------------------------*\
| =========                 |                                                 |
| \\      /  F ield         | OpenFOAM: The Open Source CFD Toolbox           |
|  \\    /   O peration     | Version:  v2006                                 |
|   \\  /    A nd           | Website:  www.openfoam.com                      |
|    \\/     M anipulation  |                                                 |
\*---------------------------------------------------------------------------*/
FoamFile
{
    version     2.0;
    format      ascii;
    class       volVectorField;
    location    "6000";
    object      C;
}
// * * * * * * * * * * * * * * * * * * * * * * * * * * * * * * * * * * * * * //

dimensions      [0 1 0 0 0 0 0];


internalField   nonuniform List<vector> 
21256
(
(-4.16846 -0.11935795 0.5)
(-4.167702 -0.11430375 0.5)
(-4.1671089 -0.10966914 0.5)
(-4.1666324 -0.10538107 0.5)
(-4.1662412 -0.10138271 0.5)
(-4.1659143 -0.097628665 0.5)
(-4.165637 -0.094081793 0.5)
(-4.165399 -0.090711226 0.5)
(-4.1651926 -0.087490896 0.5)
(-4.1650121 -0.08439842 0.5)
(-4.1648532 -0.081414347 0.5)
(-4.1647124 -0.078521547 0.5)
(-4.1645873 -0.075704722 0.5)
(-4.1644757 -0.07295003 0.5)
(-4.1643762 -0.070244766 0.5)
(-4.1642873 -0.0675771 0.5)
(-4.1642083 -0.064935848 0.5)
(-4.1641382 -0.062310272 0.5)
(-4.1640767 -0.059689893 0.5)
(-4.1640233 -0.057064318 0.5)
(-4.163978 -0.054423069 0.5)
(-4.1639406 -0.051755407 0.5)
(-4.1639115 -0.049050148 0.5)
(-4.1638911 -0.046295463 0.5)
(-4.16388 -0.043478647 0.5)
(-4.1638793 -0.040585859 0.5)
(-4.1638903 -0.037601802 0.5)
(-4.163915 -0.034509345 0.5)
(-4.1639559 -0.031289042 0.5)
(-4.1640167 -0.027918508 0.5)
(-4.1641023 -0.024371679 0.5)
(-4.1642197 -0.020617689 0.5)
(-4.164379 -0.016619411 0.5)
(-4.1645949 -0.012331444 0.5)
(-4.16489 -0.0076969834 0.5)
(-4.1652995 -0.0026429912 0.5)
(-4.5015179 -0.11917845 0.5)
(-4.5005245 -0.11383229 0.5)
(-4.4997081 -0.10901728 0.5)
(-4.4990231 -0.10462439 0.5)
(-4.4984382 -0.10057381 0.5)
(-4.4979311 -0.096804886 0.5)
(-4.4974858 -0.093270144 0.5)
(-4.4970904 -0.089931483 0.5)
(-4.4967358 -0.086757698 0.5)
(-4.4964151 -0.083722692 0.5)
(-4.4961227 -0.08080429 0.5)
(-4.4958544 -0.07798333 0.5)
(-4.4956067 -0.075242984 0.5)
(-4.4953767 -0.072568236 0.5)
(-4.495162 -0.069945464 0.5)
(-4.4949609 -0.067362109 0.5)
(-4.4947715 -0.064806382 0.5)
(-4.4945927 -0.062267028 0.5)
(-4.4944233 -0.059733098 0.5)
(-4.4942624 -0.057193744 0.5)
(-4.4941092 -0.05463802 0.5)
(-4.4939632 -0.052054667 0.5)
(-4.4938239 -0.049431899 0.5)
(-4.493691 -0.046757156 0.5)
(-4.4935644 -0.044016817 0.5)
(-4.4934441 -0.041195866 0.5)
(-4.4933304 -0.038277476 0.5)
(-4.4932238 -0.035242484 0.5)
(-4.4931251 -0.032068718 0.5)
(-4.4930357 -0.028730083 0.5)
(-4.4929577 -0.025195372 0.5)
(-4.4928937 -0.021426496 0.5)
(-4.492848 -0.017375966 0.5)
(-4.4928264 -0.012983153 0.5)
(-4.4928375 -0.0081682495 0.5)
(-4.4928938 -0.0028222371 0.5)
(-4.8346346 -0.1189985 0.5)
(-4.8334804 -0.11335966 0.5)
(-4.8325095 -0.1083638 0.5)
(-4.8316782 -0.10386584 0.5)
(-4.8309558 -0.099762892 0.5)
(-4.8303197 -0.095979066 0.5)
(-4.8297532 -0.092456484 0.5)
(-4.8292438 -0.089149808 0.5)
(-4.8287816 -0.086022684 0.5)
(-4.8283587 -0.083045291 0.5)
(-4.8279692 -0.080192722 0.5)
(-4.827608 -0.077443782 0.5)
(-4.827271 -0.074780105 0.5)
(-4.8269548 -0.072185498 0.5)
(-4.8266567 -0.069645424 0.5)
(-4.8263742 -0.067146587 0.5)
(-4.8261052 -0.064676597 0.5)
(-4.8258481 -0.062223677 0.5)
(-4.8256014 -0.05977641 0.5)
(-4.8253636 -0.057323491 0.5)
(-4.8251336 -0.054853502 0.5)
(-4.8249103 -0.052354666 0.5)
(-4.8246929 -0.049814595 0.5)
(-4.8244805 -0.047219991 0.5)
(-4.8242723 -0.044556319 0.5)
(-4.8240677 -0.041807384 0.5)
(-4.8238661 -0.038954823 0.5)
(-4.8236668 -0.03597744 0.5)
(-4.8234695 -0.032850328 0.5)
(-4.8232737 -0.029543669 0.5)
(-4.8230789 -0.026021107 0.5)
(-4.8228848 -0.022237308 0.5)
(-4.8226907 -0.018134395 0.5)
(-4.8224957 -0.013636477 0.5)
(-4.8222978 -0.0086406857 0.5)
(-4.8220929 -0.0030019269 0.5)
(-5.167808 -0.11881808 0.5)
(-5.1665699 -0.11288584 0.5)
(-5.165514 -0.1077087 0.5)
(-5.1645991 -0.1031054 0.5)
(-5.1637957 -0.098949964 0.5)
(-5.163082 -0.095151194 0.5)
(-5.1624415 -0.091640803 0.5)
(-5.1618617 -0.088366193 0.5)
(-5.1613324 -0.085285845 0.5)
(-5.1608458 -0.082366209 0.5)
(-5.1603954 -0.079579639 0.5)
(-5.1599759 -0.076902897 0.5)
(-5.1595831 -0.074316079 0.5)
(-5.1592133 -0.071801814 0.5)
(-5.1588634 -0.069344641 0.5)
(-5.1585307 -0.066930532 0.5)
(-5.158213 -0.064546491 0.5)
(-5.1579083 -0.06218022 0.5)
(-5.1576147 -0.05981983 0.5)
(-5.1573308 -0.057453559 0.5)
(-5.1570551 -0.055069519 0.5)
(-5.1567863 -0.05265541 0.5)
(-5.156523 -0.050198239 0.5)
(-5.1562642 -0.047683975 0.5)
(-5.1560087 -0.04509716 0.5)
(-5.1557553 -0.04242042 0.5)
(-5.1555028 -0.039633853 0.5)
(-5.1552498 -0.036714222 0.5)
(-5.154995 -0.033633879 0.5)
(-5.1547366 -0.030359276 0.5)
(-5.1544724 -0.026848893 0.5)
(-5.1541995 -0.023050133 0.5)
(-5.153914 -0.018894708 0.5)
(-5.1536099 -0.014291424 0.5)
(-5.153278 -0.0091142973 0.5)
(-5.1529028 -0.0031820618 0.5)
(-5.5010366 -0.1186372 0.5)
(-5.4997931 -0.11241083 0.5)
(-5.4987224 -0.10705195 0.5)
(-5.4977869 -0.10234307 0.5)
(-5.4969594 -0.09813501 0.5)
(-5.4962199 -0.094321261 0.5)
(-5.4955528 -0.090823091 0.5)
(-5.4949463 -0.087580627 0.5)
(-5.4943909 -0.084547173 0.5)
(-5.4938788 -0.081685439 0.5)
(-5.493404 -0.078965031 0.5)
(-5.4929613 -0.076360667 0.5)
(-5.4925462 -0.073850901 0.5)
(-5.4921553 -0.071417177 0.5)
(-5.4917854 -0.069043112 0.5)
(-5.4914339 -0.066713942 0.5)
(-5.4910984 -0.064416063 0.5)
(-5.4907768 -0.062136656 0.5)
(-5.4904673 -0.059863358 0.5)
(-5.4901683 -0.057583951 0.5)
(-5.4898781 -0.055286072 0.5)
(-5.4895955 -0.052956901 0.5)
(-5.4893189 -0.050582837 0.5)
(-5.4890471 -0.048149112 0.5)
(-5.4887787 -0.045639346 0.5)
(-5.4885122 -0.043034982 0.5)
(-5.488246 -0.040314573 0.5)
(-5.4879785 -0.037452838 0.5)
(-5.4877075 -0.034419382 0.5)
(-5.4874306 -0.031176916 0.5)
(-5.4871444 -0.027678741 0.5)
(-5.4868444 -0.023864983 0.5)
(-5.4865247 -0.019656914 0.5)
(-5.4861762 -0.014948003 0.5)
(-5.4857852 -0.0095890896 0.5)
(-5.4853298 -0.0033626432 0.5)
(-5.8343193 -0.11845585 0.5)
(-5.8331504 -0.11193462 0.5)
(-5.8321358 -0.10639357 0.5)
(-5.8312431 -0.10157883 0.5)
(-5.8304486 -0.097318022 0.5)
(-5.8297351 -0.093489255 0.5)
(-5.829089 -0.090003337 0.5)
(-5.8284999 -0.0867931 0.5)
(-5.8279594 -0.083806658 0.5)
(-5.8274606 -0.081002971 0.5)
(-5.826998 -0.078348892 0.5)
(-5.8265669 -0.075817088 0.5)
(-5.8261634 -0.073384566 0.5)
(-5.8257841 -0.071031583 0.5)
(-5.8254261 -0.068740834 0.5)
(-5.8250871 -0.066496814 0.5)
(-5.8247648 -0.064285311 0.5)
(-5.8244573 -0.062092984 0.5)
(-5.8241628 -0.059906995 0.5)
(-5.8238798 -0.057714668 0.5)
(-5.8236068 -0.055503165 0.5)
(-5.8233423 -0.053259144 0.5)
(-5.8230852 -0.050968393 0.5)
(-5.8228339 -0.048615409 0.5)
(-5.8225872 -0.046182884 0.5)
(-5.8223435 -0.043651076 0.5)
(-5.8221013 -0.040996992 0.5)
(-5.8218585 -0.038193299 0.5)
(-5.821613 -0.035206847 0.5)
(-5.8213618 -0.031996597 0.5)
(-5.8211013 -0.028510661 0.5)
(-5.8208263 -0.024681868 0.5)
(-5.8205299 -0.020421023 0.5)
(-5.8202018 -0.015606221 0.5)
(-5.8198267 -0.010065068 0.5)
(-5.8193806 -0.0035436725 0.5)
(-6.1676549 -0.11827404 0.5)
(-6.1666419 -0.11145722 0.5)
(-6.1657551 -0.10573353 0.5)
(-6.1649689 -0.10081267 0.5)
(-6.164265 -0.096498987 0.5)
(-6.1636297 -0.092655167 0.5)
(-6.1630524 -0.089181533 0.5)
(-6.162525 -0.086003604 0.5)
(-6.1620406 -0.083064291 0.5)
(-6.1615938 -0.080318797 0.5)
(-6.1611802 -0.077731213 0.5)
(-6.1607958 -0.075272152 0.5)
(-6.1604375 -0.072917067 0.5)
(-6.1601026 -0.070645028 0.5)
(-6.1597887 -0.068437803 0.5)
(-6.1594937 -0.066279145 0.5)
(-6.1592158 -0.064154234 0.5)
(-6.1589534 -0.062049205 0.5)
(-6.158705 -0.059950742 0.5)
(-6.1584694 -0.057845712 0.5)
(-6.1582451 -0.055720799 0.5)
(-6.1580311 -0.05356214 0.5)
(-6.1578263 -0.051354912 0.5)
(-6.1576294 -0.04908287 0.5)
(-6.1574393 -0.04672778 0.5)
(-6.1572547 -0.044268711 0.5)
(-6.157074 -0.041681118 0.5)
(-6.1568956 -0.038935612 0.5)
(-6.1567174 -0.035996283 0.5)
(-6.1565365 -0.032818331 0.5)
(-6.1563497 -0.029344663 0.5)
(-6.1561519 -0.025500797 0.5)
(-6.1559365 -0.021187044 0.5)
(-6.155694 -0.016266086 0.5)
(-6.15541 -0.010542238 0.5)
(-6.1550624 -0.0037251514 0.5)
(-6.501043 -0.11809176 0.5)
(-6.5002681 -0.1109786 0.5)
(-6.4995811 -0.10507183 0.5)
(-6.4989657 -0.10004459 0.5)
(-6.4984101 -0.095677898 0.5)
(-6.4979055 -0.091818986 0.5)
(-6.4974452 -0.088357666 0.5)
(-6.4970238 -0.085212127 0.5)
(-6.4966369 -0.082320063 0.5)
(-6.4962811 -0.07963291 0.5)
(-6.4959533 -0.077111988 0.5)
(-6.4956509 -0.074725852 0.5)
(-6.4953718 -0.072448399 0.5)
(-6.4951142 -0.070257508 0.5)
(-6.4948764 -0.068134016 0.5)
(-6.494657 -0.066060934 0.5)
(-6.4944548 -0.064022831 0.5)
(-6.4942687 -0.062005316 0.5)
(-6.4940977 -0.059994598 0.5)
(-6.4939408 -0.057977083 0.5)
(-6.4937973 -0.055938978 0.5)
(-6.4936662 -0.053865894 0.5)
(-6.4935469 -0.051742397 0.5)
(-6.4934384 -0.049551501 0.5)
(-6.4933401 -0.047274041 0.5)
(-6.4932509 -0.044887895 0.5)
(-6.4931698 -0.04236696 0.5)
(-6.4930956 -0.039679788 0.5)
(-6.4930266 -0.0367877 0.5)
(-6.4929609 -0.033642126 0.5)
(-6.4928958 -0.030180759 0.5)
(-6.4928277 -0.02632178 0.5)
(-6.4927515 -0.021954987 0.5)
(-6.4926599 -0.016927607 0.5)
(-6.4925423 -0.011020605 0.5)
(-6.4923824 -0.0039070819 0.5)
(-6.8344828 -0.11790901 0.5)
(-6.8340293 -0.11049878 0.5)
(-6.833615 -0.10440846 0.5)
(-6.8332349 -0.099274581 0.5)
(-6.8328856 -0.094854742 0.5)
(-6.8325644 -0.090980702 0.5)
(-6.8322693 -0.087531728 0.5)
(-6.8319987 -0.08441866 0.5)
(-6.831751 -0.081573965 0.5)
(-6.8315252 -0.078945299 0.5)
(-6.8313201 -0.07649121 0.5)
(-6.831135 -0.074178183 0.5)
(-6.8309691 -0.071978558 0.5)
(-6.8308217 -0.069869018 0.5)
(-6.8306922 -0.067829469 0.5)
(-6.8305802 -0.065842178 0.5)
(-6.8304851 -0.0638911 0.5)
(-6.8304067 -0.061961319 0.5)
(-6.8303444 -0.060038565 0.5)
(-6.830298 -0.058108783 0.5)
(-6.8302673 -0.056157703 0.5)
(-6.8302518 -0.054170409 0.5)
(-6.8302514 -0.052130854 0.5)
(-6.8302657 -0.050021308 0.5)
(-6.8302945 -0.047821673 0.5)
(-6.8303375 -0.045508633 0.5)
(-6.8303942 -0.043054526 0.5)
(-6.8304642 -0.040425836 0.5)
(-6.8305468 -0.037581108 0.5)
(-6.8306412 -0.034467995 0.5)
(-6.8307463 -0.031018958 0.5)
(-6.8308606 -0.027144829 0.5)
(-6.8309819 -0.022724861 0.5)
(-6.831107 -0.017590792 0.5)
(-6.8312314 -0.011500175 0.5)
(-6.831348 -0.0040894657 0.5)
(-1.6008912 -0.0016269767 0.5)
(-1.6007123 -0.0048895254 0.5)
(-1.6005601 -0.0081699466 0.5)
(-1.6004301 -0.011468975 0.5)
(-1.6003187 -0.01478686 0.5)
(-1.6002231 -0.018123459 0.5)
(-1.6001409 -0.021478315 0.5)
(-1.6000703 -0.024850707 0.5)
(-1.6000097 -0.028239697 0.5)
(-1.599958 -0.031644168 0.5)
(-1.5999142 -0.035062848 0.5)
(-1.5998773 -0.038494337 0.5)
(-1.5998468 -0.041937128 0.5)
(-1.5998221 -0.045389624 0.5)
(-1.5998028 -0.048850156 0.5)
(-1.5997886 -0.052316997 0.5)
(-1.5997792 -0.055788375 0.5)
(-1.5997746 -0.059262487 0.5)
(-1.5997746 -0.062737513 0.5)
(-1.5997792 -0.066211625 0.5)
(-1.5997886 -0.069683003 0.5)
(-1.5998028 -0.073149844 0.5)
(-1.5998221 -0.076610376 0.5)
(-1.5998468 -0.080062872 0.5)
(-1.5998773 -0.083505663 0.5)
(-1.5999142 -0.086937152 0.5)
(-1.599958 -0.090355832 0.5)
(-1.6000097 -0.093760303 0.5)
(-1.6000703 -0.097149293 0.5)
(-1.6001409 -0.10052169 0.5)
(-1.6002231 -0.10387654 0.5)
(-1.6003187 -0.10721314 0.5)
(-1.6004301 -0.11053102 0.5)
(-1.6005601 -0.11383005 0.5)
(-1.6007123 -0.11711047 0.5)
(-1.6008912 -0.12037302 0.5)
(-1.8091868 -0.0017072803 0.5)
(-1.8089952 -0.0051126134 0.5)
(-1.808829 -0.0085027373 0.5)
(-1.8086846 -0.011883061 0.5)
(-1.808559 -0.015257734 0.5)
(-1.8084498 -0.018629905 0.5)
(-1.8083549 -0.022001934 0.5)
(-1.8082726 -0.025375532 0.5)
(-1.8082014 -0.028751886 0.5)
(-1.8081402 -0.032131759 0.5)
(-1.808088 -0.035515562 0.5)
(-1.8080439 -0.038903415 0.5)
(-1.8080072 -0.042295205 0.5)
(-1.8079774 -0.045690622 0.5)
(-1.8079541 -0.049089204 0.5)
(-1.8079369 -0.052490369 0.5)
(-1.8079255 -0.055893441 0.5)
(-1.8079199 -0.059297682 0.5)
(-1.8079199 -0.062702318 0.5)
(-1.8079255 -0.066106559 0.5)
(-1.8079369 -0.069509631 0.5)
(-1.8079541 -0.072910796 0.5)
(-1.8079774 -0.076309378 0.5)
(-1.8080072 -0.079704795 0.5)
(-1.8080439 -0.083096585 0.5)
(-1.808088 -0.086484438 0.5)
(-1.8081402 -0.089868241 0.5)
(-1.8082014 -0.093248114 0.5)
(-1.8082726 -0.096624468 0.5)
(-1.8083549 -0.099998066 0.5)
(-1.8084498 -0.10337009 0.5)
(-1.808559 -0.10674227 0.5)
(-1.8086846 -0.11011694 0.5)
(-1.808829 -0.11349726 0.5)
(-1.8089952 -0.11688739 0.5)
(-1.8091868 -0.12029272 0.5)
(-2.0341474 -0.0017940087 0.5)
(-2.0339429 -0.0053535508 0.5)
(-2.0337619 -0.0088621551 0.5)
(-2.0336019 -0.012330279 0.5)
(-2.0334606 -0.015766282 0.5)
(-2.033336 -0.01917687 0.5)
(-2.0332266 -0.022567444 0.5)
(-2.0331306 -0.025942342 0.5)
(-2.033047 -0.029305046 0.5)
(-2.0329745 -0.032658352 0.5)
(-2.0329121 -0.036004485 0.5)
(-2.0328592 -0.039345211 0.5)
(-2.032815 -0.042681918 0.5)
(-2.032779 -0.04601569 0.5)
(-2.0327507 -0.049347368 0.5)
(-2.0327297 -0.052677605 0.5)
(-2.0327159 -0.056006909 0.5)
(-2.032709 -0.059335692 0.5)
(-2.032709 -0.062664308 0.5)
(-2.0327159 -0.065993091 0.5)
(-2.0327297 -0.069322395 0.5)
(-2.0327507 -0.072652632 0.5)
(-2.032779 -0.07598431 0.5)
(-2.032815 -0.079318082 0.5)
(-2.0328592 -0.082654789 0.5)
(-2.0329121 -0.085995515 0.5)
(-2.0329745 -0.089341648 0.5)
(-2.033047 -0.092694954 0.5)
(-2.0331306 -0.096057658 0.5)
(-2.0332266 -0.099432556 0.5)
(-2.033336 -0.10282313 0.5)
(-2.0334606 -0.10623372 0.5)
(-2.0336019 -0.10966972 0.5)
(-2.0337619 -0.11313784 0.5)
(-2.0339429 -0.11664645 0.5)
(-2.0341474 -0.12020599 0.5)
(-2.2771063 -0.001887676 0.5)
(-2.2768887 -0.0056137655 0.5)
(-2.2766921 -0.0092503307 0.5)
(-2.2765152 -0.012813279 0.5)
(-2.2763566 -0.016315519 0.5)
(-2.2762148 -0.019767596 0.5)
(-2.2760886 -0.023178196 0.5)
(-2.2759768 -0.026554496 0.5)
(-2.2758783 -0.029902455 0.5)
(-2.2757923 -0.033227064 0.5)
(-2.2757178 -0.036532513 0.5)
(-2.2756542 -0.039822339 0.5)
(-2.2756007 -0.043099557 0.5)
(-2.2755569 -0.046366753 0.5)
(-2.2755224 -0.049626176 0.5)
(-2.2754968 -0.052879812 0.5)
(-2.2754799 -0.056129449 0.5)
(-2.2754715 -0.059376741 0.5)
(-2.2754715 -0.062623259 0.5)
(-2.2754799 -0.065870551 0.5)
(-2.2754968 -0.069120188 0.5)
(-2.2755224 -0.072373824 0.5)
(-2.2755569 -0.075633247 0.5)
(-2.2756007 -0.078900443 0.5)
(-2.2756542 -0.082177661 0.5)
(-2.2757178 -0.085467487 0.5)
(-2.2757923 -0.088772936 0.5)
(-2.2758783 -0.092097545 0.5)
(-2.2759768 -0.095445504 0.5)
(-2.2760886 -0.098821804 0.5)
(-2.2762148 -0.1022324 0.5)
(-2.2763566 -0.10568448 0.5)
(-2.2765152 -0.10918672 0.5)
(-2.2766921 -0.11274967 0.5)
(-2.2768887 -0.11638623 0.5)
(-2.2771063 -0.12011232 0.5)
(-2.5395034 -0.0019888372 0.5)
(-2.5392723 -0.0058947999 0.5)
(-2.5390595 -0.0096695649 0.5)
(-2.5388646 -0.013334925 0.5)
(-2.5386868 -0.016908701 0.5)
(-2.5385256 -0.020405585 0.5)
(-2.5383803 -0.02383781 0.5)
(-2.53825 -0.02721562 0.5)
(-2.5381341 -0.030547651 0.5)
(-2.5380318 -0.033841265 0.5)
(-2.5379426 -0.037102771 0.5)
(-2.5378658 -0.040337624 0.5)
(-2.537801 -0.043550593 0.5)
(-2.5377476 -0.046745887 0.5)
(-2.5377053 -0.049927276 0.5)
(-2.5376739 -0.053098186 0.5)
(-2.5376531 -0.056261786 0.5)
(-2.5376427 -0.059421071 0.5)
(-2.5376427 -0.062578929 0.5)
(-2.5376531 -0.065738214 0.5)
(-2.5376739 -0.068901814 0.5)
(-2.5377053 -0.072072724 0.5)
(-2.5377476 -0.075254113 0.5)
(-2.537801 -0.078449407 0.5)
(-2.5378658 -0.081662376 0.5)
(-2.5379426 -0.084897229 0.5)
(-2.5380318 -0.088158735 0.5)
(-2.5381341 -0.091452349 0.5)
(-2.53825 -0.09478438 0.5)
(-2.5383803 -0.09816219 0.5)
(-2.5385256 -0.10159442 0.5)
(-2.5386868 -0.1050913 0.5)
(-2.5388646 -0.10866507 0.5)
(-2.5390595 -0.11233044 0.5)
(-2.5392723 -0.1161052 0.5)
(-2.5395034 -0.12001116 0.5)
(-2.8228938 -0.0020980919 0.5)
(-2.8226491 -0.0061983195 0.5)
(-2.8224193 -0.010122342 0.5)
(-2.822205 -0.01389831 0.5)
(-2.8220064 -0.017549344 0.5)
(-2.8218235 -0.021094617 0.5)
(-2.8216562 -0.024550196 0.5)
(-2.8215044 -0.027929632 0.5)
(-2.8213678 -0.031244456 0.5)
(-2.8212461 -0.034504591 0.5)
(-2.8211389 -0.037718635 0.5)
(-2.8210459 -0.040894116 0.5)
(-2.8209669 -0.044037694 0.5)
(-2.8209015 -0.047155335 0.5)
(-2.8208495 -0.050252448 0.5)
(-2.8208107 -0.053334017 0.5)
(-2.8207849 -0.056404703 0.5)
(-2.820772 -0.059468946 0.5)
(-2.820772 -0.062531054 0.5)
(-2.8207849 -0.065595297 0.5)
(-2.8208107 -0.068665983 0.5)
(-2.8208495 -0.071747552 0.5)
(-2.8209015 -0.074844665 0.5)
(-2.8209669 -0.077962306 0.5)
(-2.8210459 -0.081105884 0.5)
(-2.8211389 -0.084281365 0.5)
(-2.8212461 -0.087495409 0.5)
(-2.8213678 -0.090755544 0.5)
(-2.8215044 -0.094070368 0.5)
(-2.8216562 -0.097449804 0.5)
(-2.8218235 -0.10090538 0.5)
(-2.8220064 -0.10445066 0.5)
(-2.822205 -0.10810169 0.5)
(-2.8224193 -0.11187766 0.5)
(-2.8226491 -0.11580168 0.5)
(-2.8228938 -0.11990191 0.5)
(-3.1289568 -0.0022160875 0.5)
(-3.1286984 -0.0065261234 0.5)
(-3.1284511 -0.010611347 0.5)
(-3.1282162 -0.014506771 0.5)
(-3.1279947 -0.018241245 0.5)
(-3.1277875 -0.021838779 0.5)
(-3.1275952 -0.025319575 0.5)
(-3.1274183 -0.028700764 0.5)
(-3.1272571 -0.031996999 0.5)
(-3.1271119 -0.035220971 0.5)
(-3.1269828 -0.038383751 0.5)
(-3.1268699 -0.041495105 0.5)
(-3.1267732 -0.044563741 0.5)
(-3.1266926 -0.047597516 0.5)
(-3.1266282 -0.050603615 0.5)
(-3.12658 -0.053588701 0.5)
(-3.1265478 -0.056559043 0.5)
(-3.1265318 -0.059520646 0.5)
(-3.1265318 -0.062479354 0.5)
(-3.1265478 -0.065440957 0.5)
(-3.12658 -0.068411299 0.5)
(-3.1266282 -0.071396385 0.5)
(-3.1266926 -0.074402484 0.5)
(-3.1267732 -0.077436259 0.5)
(-3.1268699 -0.080504895 0.5)
(-3.1269828 -0.083616249 0.5)
(-3.1271119 -0.086779029 0.5)
(-3.1272571 -0.090003001 0.5)
(-3.1274183 -0.093299236 0.5)
(-3.1275952 -0.096680425 0.5)
(-3.1277875 -0.10016122 0.5)
(-3.1279947 -0.10375875 0.5)
(-3.1282162 -0.10749323 0.5)
(-3.1284511 -0.11138865 0.5)
(-3.1286984 -0.11547388 0.5)
(-3.1289568 -0.11978391 0.5)
(-3.4595062 -0.0023435233 0.5)
(-3.4592341 -0.0068801541 0.5)
(-3.4589687 -0.011139478 0.5)
(-3.4587119 -0.015163918 0.5)
(-3.4584656 -0.018988507 0.5)
(-3.4582312 -0.022642479 0.5)
(-3.4580105 -0.026150507 0.5)
(-3.4578043 -0.029533583 0.5)
(-3.457614 -0.032809736 0.5)
(-3.4574405 -0.035994645 0.5)
(-3.4572845 -0.039102056 0.5)
(-3.4571467 -0.042144148 0.5)
(-3.4570276 -0.045131843 0.5)
(-3.4569278 -0.048075044 0.5)
(-3.4568475 -0.050982851 0.5)
(-3.4567871 -0.053863739 0.5)
(-3.4567467 -0.056725718 0.5)
(-3.4567265 -0.059576479 0.5)
(-3.4567265 -0.062423521 0.5)
(-3.4567467 -0.065274282 0.5)
(-3.4567871 -0.068136261 0.5)
(-3.4568475 -0.071017149 0.5)
(-3.4569278 -0.073924956 0.5)
(-3.4570276 -0.076868157 0.5)
(-3.4571467 -0.079855852 0.5)
(-3.4572845 -0.082897944 0.5)
(-3.4574405 -0.086005355 0.5)
(-3.457614 -0.089190264 0.5)
(-3.4578043 -0.092466417 0.5)
(-3.4580105 -0.095849493 0.5)
(-3.4582312 -0.099357521 0.5)
(-3.4584656 -0.10301149 0.5)
(-3.4587119 -0.10683608 0.5)
(-3.4589687 -0.11086052 0.5)
(-3.4592341 -0.11511985 0.5)
(-3.4595062 -0.11965648 0.5)
(-3.816501 -0.0024811545 0.5)
(-3.8162152 -0.0072625101 0.5)
(-3.8159312 -0.011709865 0.5)
(-3.8156513 -0.015873643 0.5)
(-3.815378 -0.019795558 0.5)
(-3.8151135 -0.023510483 0.5)
(-3.8148602 -0.027047917 0.5)
(-3.81462 -0.030433025 0.5)
(-3.8143951 -0.033687481 0.5)
(-3.8141872 -0.036830194 0.5)
(-3.813998 -0.039877797 0.5)
(-3.813829 -0.042845082 0.5)
(-3.8136817 -0.045745358 0.5)
(-3.8135571 -0.048590739 0.5)
(-3.8134563 -0.051392392 0.5)
(-3.8133799 -0.054160754 0.5)
(-3.8133287 -0.056905711 0.5)
(-3.813303 -0.059636773 0.5)
(-3.813303 -0.062363227 0.5)
(-3.8133287 -0.065094289 0.5)
(-3.8133799 -0.067839246 0.5)
(-3.8134563 -0.070607608 0.5)
(-3.8135571 -0.073409261 0.5)
(-3.8136817 -0.076254642 0.5)
(-3.813829 -0.079154918 0.5)
(-3.813998 -0.082122203 0.5)
(-3.8141872 -0.085169806 0.5)
(-3.8143951 -0.088312519 0.5)
(-3.81462 -0.091566975 0.5)
(-3.8148602 -0.094952083 0.5)
(-3.8151135 -0.098489517 0.5)
(-3.815378 -0.10220444 0.5)
(-3.8156513 -0.10612636 0.5)
(-3.8159312 -0.11029014 0.5)
(-3.8162152 -0.11473749 0.5)
(-3.816501 -0.11951885 0.5)
(-1.4398199 -0.12046838 0.5)
(-1.3226521 -0.12057832 0.5)
(-1.2146635 -0.12067964 0.5)
(-1.1151348 -0.12077303 0.5)
(-1.0234034 -0.12085909 0.5)
(-0.93885842 -0.12093842 0.5)
(-0.86093686 -0.12101153 0.5)
(-0.78911986 -0.12107891 0.5)
(-0.72292917 -0.12114102 0.5)
(-0.66192403 -0.12119826 0.5)
(-0.6056982 -0.12125101 0.5)
(-0.55387728 -0.12129963 0.5)
(-0.50611618 -0.12134445 0.5)
(-0.46209685 -0.12138575 0.5)
(-0.42152617 -0.12142381 0.5)
(-0.38413397 -0.1214589 0.5)
(-0.34967124 -0.12149123 0.5)
(-0.3179085 -0.12152104 0.5)
(-0.28863422 -0.1215485 0.5)
(-0.26165346 -0.12157382 0.5)
(-0.23678654 -0.12159715 0.5)
(-0.21386787 -0.12161865 0.5)
(-0.19274481 -0.12163847 0.5)
(-0.17327669 -0.12165674 0.5)
(-0.15533387 -0.12167357 0.5)
(-0.13879685 -0.12168909 0.5)
(-0.12355549 -0.12170339 0.5)
(-0.10950829 -0.12171657 0.5)
(-0.096561696 -0.12172872 0.5)
(-0.084629477 -0.12173991 0.5)
(-0.073632162 -0.12175023 0.5)
(-0.063496505 -0.12175974 0.5)
(-0.054154999 -0.12176851 0.5)
(-0.045545421 -0.12177658 0.5)
(-0.037610428 -0.12178403 0.5)
(-0.030297165 -0.12179089 0.5)
(-0.02355692 -0.12179722 0.5)
(-0.017344793 -0.12180304 0.5)
(-0.011619408 -0.12180842 0.5)
(-0.0063426266 -0.12181337 0.5)
(-0.0014792985 -0.12181793 0.5)
(0.0030029725 -0.12182214 0.5)
(0.0071340435 -0.12182601 0.5)
(0.010941433 -0.12182958 0.5)
(0.014450504 -0.12183288 0.5)
(0.017684632 -0.12183591 0.5)
(-1.4397975 -0.11738679 0.5)
(-1.3226301 -0.11771463 0.5)
(-1.2146418 -0.11801678 0.5)
(-1.1151135 -0.11829526 0.5)
(-1.0233826 -0.11855193 0.5)
(-0.93883802 -0.11878848 0.5)
(-0.86091694 -0.11900651 0.5)
(-0.78910042 -0.11920745 0.5)
(-0.72291025 -0.11939265 0.5)
(-0.66190565 -0.11956334 0.5)
(-0.60568038 -0.11972066 0.5)
(-0.55386004 -0.11986566 0.5)
(-0.50609953 -0.11999929 0.5)
(-0.46208081 -0.12012246 0.5)
(-0.42151076 -0.12023597 0.5)
(-0.3841192 -0.12034059 0.5)
(-0.34965712 -0.12043702 0.5)
(-0.31789503 -0.12052589 0.5)
(-0.28862141 -0.1206078 0.5)
(-0.26164132 -0.12068329 0.5)
(-0.23677506 -0.12075286 0.5)
(-0.21385704 -0.12081699 0.5)
(-0.19273464 -0.12087609 0.5)
(-0.17326717 -0.12093056 0.5)
(-0.15532498 -0.12098076 0.5)
(-0.13878857 -0.12102703 0.5)
(-0.12354781 -0.12106968 0.5)
(-0.10950119 -0.12110898 0.5)
(-0.096555149 -0.1211452 0.5)
(-0.084623462 -0.12117859 0.5)
(-0.073626654 -0.12120936 0.5)
(-0.063491478 -0.12123771 0.5)
(-0.054150424 -0.12126385 0.5)
(-0.045541272 -0.12128794 0.5)
(-0.037606675 -0.12131014 0.5)
(-0.030293782 -0.1213306 0.5)
(-0.023553877 -0.12134946 0.5)
(-0.017342066 -0.12136684 0.5)
(-0.01161697 -0.12138286 0.5)
(-0.0063404518 -0.12139762 0.5)
(-0.0014773635 -0.12141123 0.5)
(0.0030046898 -0.12142377 0.5)
(0.0071355644 -0.12143533 0.5)
(0.010942778 -0.12144598 0.5)
(0.01445169 -0.1214558 0.5)
(0.017685676 -0.12146485 0.5)
(-1.4397697 -0.11426879 0.5)
(-1.3226029 -0.1148097 0.5)
(-1.2146152 -0.11530824 0.5)
(-1.1150876 -0.11576771 0.5)
(-1.0233573 -0.11619119 0.5)
(-0.93881349 -0.1165815 0.5)
(-0.86089314 -0.11694122 0.5)
(-0.78907738 -0.11727276 0.5)
(-0.72288799 -0.11757833 0.5)
(-0.66188419 -0.11785996 0.5)
(-0.60565975 -0.11811953 0.5)
(-0.55384025 -0.11835875 0.5)
(-0.5060806 -0.11857924 0.5)
(-0.46206275 -0.11878245 0.5)
(-0.42149357 -0.11896974 0.5)
(-0.38410288 -0.11914236 0.5)
(-0.34964169 -0.11930145 0.5)
(-0.31788047 -0.11944808 0.5)
(-0.28860772 -0.11958322 0.5)
(-0.26162848 -0.11970777 0.5)
(-0.23676307 -0.11982257 0.5)
(-0.21384587 -0.11992836 0.5)
(-0.19272426 -0.12002587 0.5)
(-0.17325757 -0.12011574 0.5)
(-0.15531612 -0.12019857 0.5)
(-0.13878043 -0.12027491 0.5)
(-0.12354035 -0.12034527 0.5)
(-0.10949437 -0.12041011 0.5)
(-0.096548942 -0.12046987 0.5)
(-0.084617827 -0.12052496 0.5)
(-0.073621555 -0.12057572 0.5)
(-0.063486877 -0.12062251 0.5)
(-0.054146285 -0.12066563 0.5)
(-0.045537559 -0.12070537 0.5)
(-0.037603354 -0.120742 0.5)
(-0.030290818 -0.12077576 0.5)
(-0.023551239 -0.12080687 0.5)
(-0.017339723 -0.12083555 0.5)
(-0.011614894 -0.12086198 0.5)
(-0.0063386164 -0.12088634 0.5)
(-0.0014757439 -0.12090879 0.5)
(0.0030061165 -0.12092948 0.5)
(0.0071368194 -0.12094855 0.5)
(0.01094388 -0.12096612 0.5)
(0.014452657 -0.12098232 0.5)
(0.017686523 -0.12099725 0.5)
(-1.4397355 -0.11111503 0.5)
(-1.3225696 -0.11186221 0.5)
(-1.2145829 -0.11255086 0.5)
(-1.1150563 -0.11318555 0.5)
(-1.0233271 -0.11377052 0.5)
(-0.9387843 -0.11430966 0.5)
(-0.86086506 -0.11480656 0.5)
(-0.78905043 -0.11526453 0.5)
(-0.72286218 -0.11568663 0.5)
(-0.66185955 -0.11607565 0.5)
(-0.60563628 -0.11643419 0.5)
(-0.55381795 -0.11676464 0.5)
(-0.50605948 -0.11706921 0.5)
(-0.46204282 -0.11734991 0.5)
(-0.42147481 -0.11760861 0.5)
(-0.38408528 -0.11784705 0.5)
(-0.34962522 -0.11806681 0.5)
(-0.31786512 -0.11826935 0.5)
(-0.28859345 -0.11845601 0.5)
(-0.26161526 -0.11862806 0.5)
(-0.23675086 -0.11878662 0.5)
(-0.21383464 -0.11893276 0.5)
(-0.19271396 -0.11906745 0.5)
(-0.17324814 -0.11919159 0.5)
(-0.15530753 -0.119306 0.5)
(-0.13877263 -0.11941144 0.5)
(-0.12353328 -0.11950862 0.5)
(-0.10948799 -0.11959819 0.5)
(-0.096543197 -0.11968074 0.5)
(-0.084612669 -0.11975683 0.5)
(-0.073616937 -0.11982695 0.5)
(-0.063482754 -0.11989157 0.5)
(-0.054142613 -0.11995114 0.5)
(-0.045534296 -0.12000603 0.5)
(-0.037600461 -0.12005663 0.5)
(-0.030288259 -0.12010326 0.5)
(-0.02354898 -0.12014624 0.5)
(-0.017337733 -0.12018585 0.5)
(-0.011613143 -0.12022235 0.5)
(-0.0063370783 -0.120256 0.5)
(-0.0014743946 -0.12028701 0.5)
(0.003007299 -0.12031559 0.5)
(0.0071378544 -0.12034193 0.5)
(0.010944785 -0.12036621 0.5)
(0.014453449 -0.12038858 0.5)
(0.017687216 -0.12040921 0.5)
(-1.4396936 -0.10792602 0.5)
(-1.3225292 -0.1088703 0.5)
(-1.214544 -0.1097406 0.5)
(-1.1150189 -0.11054272 0.5)
(-1.0232912 -0.11128199 0.5)
(-0.93875006 -0.11196335 0.5)
(-0.86083242 -0.11259132 0.5)
(-0.7890194 -0.1131701 0.5)
(-0.72283278 -0.11370352 0.5)
(-0.66183176 -0.11419516 0.5)
(-0.6056101 -0.11464828 0.5)
(-0.55379337 -0.11506589 0.5)
(-0.50603647 -0.11545078 0.5)
(-0.46202134 -0.11580552 0.5)
(-0.42145483 -0.11613247 0.5)
(-0.38406675 -0.11643379 0.5)
(-0.3496081 -0.11671151 0.5)
(-0.31784935 -0.11696747 0.5)
(-0.28857897 -0.11720337 0.5)
(-0.26160201 -0.11742079 0.5)
(-0.23673877 -0.11762118 0.5)
(-0.21382365 -0.11780586 0.5)
(-0.192704 -0.11797607 0.5)
(-0.17323914 -0.11813295 0.5)
(-0.15529942 -0.11827753 0.5)
(-0.13876534 -0.11841079 0.5)
(-0.12352675 -0.1185336 0.5)
(-0.10948216 -0.1186468 0.5)
(-0.096537996 -0.11875112 0.5)
(-0.084608046 -0.11884727 0.5)
(-0.073612837 -0.11893588 0.5)
(-0.063479125 -0.11901756 0.5)
(-0.054139408 -0.11909283 0.5)
(-0.045531471 -0.1191622 0.5)
(-0.037597976 -0.11922614 0.5)
(-0.030286076 -0.11928507 0.5)
(-0.023547065 -0.11933939 0.5)
(-0.017336055 -0.11938944 0.5)
(-0.011611674 -0.11943558 0.5)
(-0.0063357938 -0.1194781 0.5)
(-0.001473272 -0.11951729 0.5)
(0.0030082798 -0.11955341 0.5)
(0.0071387114 -0.1195867 0.5)
(0.010945534 -0.11961738 0.5)
(0.014454104 -0.11964566 0.5)
(0.017687788 -0.11967172 0.5)
(-1.4396428 -0.10470212 0.5)
(-1.3224806 -0.10583151 0.5)
(-1.2144976 -0.10687241 0.5)
(-1.1149748 -0.10783176 0.5)
(-1.0232494 -0.10871595 0.5)
(-0.93871051 -0.10953087 0.5)
(-0.86079514 -0.11028194 0.5)
(-0.78898437 -0.11097416 0.5)
(-0.72279996 -0.11161214 0.5)
(-0.66180112 -0.11220014 0.5)
(-0.60558158 -0.11274207 0.5)
(-0.5537669 -0.11324154 0.5)
(-0.50601199 -0.11370188 0.5)
(-0.46199878 -0.11412615 0.5)
(-0.4214341 -0.11451717 0.5)
(-0.38404777 -0.11487756 0.5)
(-0.34959077 -0.11520971 0.5)
(-0.31783359 -0.11551583 0.5)
(-0.28856468 -0.11579797 0.5)
(-0.26158908 -0.116058 0.5)
(-0.23672712 -0.11629766 0.5)
(-0.21381317 -0.11651854 0.5)
(-0.19269461 -0.11672211 0.5)
(-0.17323075 -0.11690973 0.5)
(-0.15529194 -0.11708265 0.5)
(-0.13875868 -0.11724203 0.5)
(-0.12352085 -0.11738891 0.5)
(-0.10947693 -0.11752429 0.5)
(-0.09653338 -0.11764906 0.5)
(-0.084603977 -0.11776405 0.5)
(-0.073609257 -0.11787004 0.5)
(-0.06347598 -0.11796772 0.5)
(-0.05413665 -0.11805774 0.5)
(-0.045529055 -0.11814072 0.5)
(-0.037595862 -0.11821719 0.5)
(-0.030284228 -0.11828767 0.5)
(-0.023545451 -0.11835263 0.5)
(-0.017334646 -0.1184125 0.5)
(-0.011610445 -0.11846768 0.5)
(-0.0063347208 -0.11851853 0.5)
(-0.0014723353 -0.1185654 0.5)
(0.0030090979 -0.1186086 0.5)
(0.0071394266 -0.11864842 0.5)
(0.01094616 -0.11868511 0.5)
(0.014454652 -0.11871893 0.5)
(0.01768827 -0.1187501 0.5)
(-1.4395816 -0.10144352 0.5)
(-1.3224227 -0.10274273 0.5)
(-1.2144431 -0.10394015 0.5)
(-1.1149236 -0.10504375 0.5)
(-1.0232014 -0.10606089 0.5)
(-0.9386657 -0.10699833 0.5)
(-0.86075342 -0.10786233 0.5)
(-0.78894567 -0.10865862 0.5)
(-0.72276417 -0.10939253 0.5)
(-0.66176812 -0.11006894 0.5)
(-0.60555126 -0.11069234 0.5)
(-0.55373914 -0.1112669 0.5)
(-0.50598665 -0.11179645 0.5)
(-0.46197572 -0.1122845 0.5)
(-0.42141318 -0.11273431 0.5)
(-0.38402886 -0.11314887 0.5)
(-0.34957372 -0.11353096 0.5)
(-0.31781826 -0.1138831 0.5)
(-0.28855094 -0.11420766 0.5)
(-0.2615768 -0.11450678 0.5)
(-0.23671617 -0.11478247 0.5)
(-0.21380344 -0.11503656 0.5)
(-0.19268597 -0.11527074 0.5)
(-0.1732231 -0.11548657 0.5)
(-0.15528519 -0.11568548 0.5)
(-0.13875273 -0.11586882 0.5)
(-0.12351562 -0.11603779 0.5)
(-0.10947234 -0.11619352 0.5)
(-0.096529353 -0.11633705 0.5)
(-0.084600452 -0.11646933 0.5)
(-0.073606174 -0.11659125 0.5)
(-0.063473288 -0.11670362 0.5)
(-0.0541343 -0.11680718 0.5)
(-0.045527006 -0.11690263 0.5)
(-0.037594076 -0.1169906 0.5)
(-0.030282671 -0.11707168 0.5)
(-0.023544094 -0.1171464 0.5)
(-0.017333463 -0.11721527 0.5)
(-0.011609413 -0.11727875 0.5)
(-0.0063338196 -0.11733725 0.5)
(-0.0014715474 -0.11739117 0.5)
(0.0030097879 -0.11744087 0.5)
(0.0071400319 -0.11748667 0.5)
(0.010946693 -0.11752888 0.5)
(0.014455122 -0.11756779 0.5)
(0.017688686 -0.11760365 0.5)
(-1.4395091 -0.098150229 0.5)
(-1.3223551 -0.099600222 0.5)
(-1.2143802 -0.10093661 0.5)
(-1.1148652 -0.10216828 0.5)
(-1.0231475 -0.10330346 0.5)
(-0.93861604 -0.10434968 0.5)
(-0.86070783 -0.10531394 0.5)