/*--------------------------------*- C++ -*----------------------------------*\
| =========                 |                                                 |
| \\      /  F ield         | OpenFOAM: The Open Source CFD Toolbox           |
|  \\    /   O peration     | Version:  v2006                                 |
|   \\  /    A nd           | Website:  www.openfoam.com                      |
|    \\/     M anipulation  |                                                 |
\*---------------------------------------------------------------------------*/
FoamFile
{
    version     2.0;
    format      ascii;
    class       volScalarField;
    location    "6000";
    object      Cp;
}
// * * * * * * * * * * * * * * * * * * * * * * * * * * * * * * * * * * * * * //

dimensions      [0 0 0 0 0 0 0];


internalField   nonuniform List<scalar> 
21256
(
0.0090462211
0.0090467611
0.0090467232
0.0090469972
0.0090468194
0.009046724
0.0090465275
0.0090463637
0.0090462608
0.0090461801
0.0090461197
0.0090461028
0.00904611
0.0090461268
0.0090461377
0.009046133
0.0090461022
0.0090460396
0.0090459421
0.0090458132
0.0090456557
0.0090454836
0.0090453144
0.0090451612
0.0090450124
0.0090448479
0.009044647
0.0090444025
0.0090441375
0.0090438599
0.0090435615
0.0090432379
0.0090428764
0.0090423752
0.0090421805
0.00904128
0.0083847697
0.008386594
0.0083865572
0.0083876807
0.0083879897
0.0083887816
0.0083891744
0.0083895798
0.0083897327
0.00838972
0.0083896137
0.0083895163
0.0083895489
0.0083896353
0.0083897993
0.0083900574
0.0083903901
0.0083907503
0.0083910689
0.008391295
0.0083914131
0.008391441
0.0083914399
0.0083914724
0.0083915797
0.0083917484
0.008391959
0.0083921673
0.0083923355
0.0083924806
0.0083925987
0.0083927101
0.0083927811
0.0083929062
0.0083929951
0.008393028
0.0078288613
0.0078305927
0.0078306024
0.0078317692
0.007832097
0.0078330776
0.0078337282
0.0078345284
0.0078351745
0.0078357034
0.0078361048
0.0078363917
0.0078365956
0.0078367099
0.0078367915
0.0078368621
0.0078369871
0.0078372039
0.0078375144
0.0078378794
0.0078382103
0.0078384964
0.0078387331
0.007838966
0.0078391163
0.0078393357
0.007839487
0.0078397556
0.0078398866
0.007840163
0.0078402696
0.0078405456
0.0078406714
0.0078409662
0.0078411138
0.0078414697
0.0075078186
0.0075091582
0.0075092058
0.0075100567
0.0075101187
0.0075105773
0.0075107024
0.0075109685
0.0075111968
0.0075115201
0.0075118719
0.0075121841
0.0075125331
0.0075127826
0.0075129577
0.0075129942
0.0075129592
0.0075129263
0.0075129389
0.0075129762
0.007513046
0.007513132
0.0075132059
0.007513289
0.0075133199
0.0075133968
0.0075133987
0.0075134837
0.0075134905
0.0075135972
0.0075135927
0.0075136905
0.0075137316
0.0075138198
0.0075138382
0.0075139485
0.0072548895
0.0072572411
0.0072578598
0.0072587077
0.0072595555
0.0072599706
0.0072607255
0.0072610064
0.0072616578
0.0072619982
0.0072625679
0.0072630284
0.007263584
0.0072641569
0.0072647915
0.0072653763
0.007265897
0.0072663747
0.0072668232
0.0072672967
0.0072678036
0.0072683354
0.0072688827
0.0072694422
0.0072700145
0.0072706113
0.0072712294
0.0072718741
0.0072725424
0.0072732451
0.0072739934
0.0072748095
0.0072756986
0.0072766844
0.0072778685
0.0072792316
0.0064345757
0.0064354051
0.0064371628
0.0064379813
0.0064391549
0.0064399617
0.0064407229
0.0064414852
0.0064420064
0.0064426082
0.0064429441
0.0064434184
0.0064436887
0.0064440625
0.0064443311
0.0064447099
0.0064450059
0.0064453141
0.0064456716
0.0064458922
0.0064460559
0.0064461553
0.0064462614
0.0064463221
0.0064463692
0.0064463894
0.0064463805
0.0064463405
0.0064462679
0.0064461447
0.006446
0.006445789
0.0064455286
0.0064452009
0.0064449518
0.006444539
0.0063539348
0.0063477658
0.0063467409
0.0063427127
0.0063414711
0.0063384639
0.0063374103
0.0063349847
0.0063339865
0.0063319298
0.0063309478
0.0063292124
0.0063282285
0.0063266761
0.0063256906
0.0063243184
0.0063233548
0.0063221662
0.0063210075
0.0063198643
0.0063187496
0.0063176495
0.00631655
0.0063154306
0.0063142824
0.0063130966
0.0063118682
0.0063105906
0.0063092245
0.006307795
0.006306226
0.0063045517
0.0063026661
0.0063004489
0.006297828
0.0062939814
0.0096333694
0.0096317767
0.0096304096
0.0096295457
0.0096286428
0.0096279304
0.0096272985
0.0096268015
0.009626366
0.0096259819
0.0096256355
0.0096253673
0.0096251252
0.009624947
0.009624776
0.0096246459
0.0096245283
0.0096244131
0.0096243168
0.0096242504
0.0096241996
0.0096241655
0.0096242029
0.0096242374
0.0096242955
0.0096243831
0.0096245159
0.0096246676
0.0096248806
0.0096250999
0.0096254869
0.0096259559
0.0096265367
0.0096273043
0.009628236
0.009629547
0.0060328307
0.0060383078
0.0060380872
0.0060416533
0.0060415426
0.0060440325
0.0060440002
0.0060457293
0.0060457785
0.0060470784
0.0060472706
0.0060481394
0.0060483224
0.0060489999
0.0060491264
0.0060496982
0.0060497769
0.0060502691
0.0060504157
0.006050844
0.0060509813
0.0060512987
0.0060514532
0.0060516149
0.0060517902
0.0060519404
0.0060520529
0.0060521412
0.0060522145
0.0060522439
0.0060522312
0.0060519958
0.0060516053
0.0060514509
0.0060504694
0.006050121
0.026531862
0.026540026
0.026550166
0.026559203
0.026568303
0.026577178
0.026585836
0.026594295
0.026602534
0.026610549
0.026618327
0.026625854
0.026633115
0.026640092
0.026646766
0.02665312
0.026659138
0.02666481
0.02667013
0.026675099
0.026679719
0.026683997
0.026687943
0.026691566
0.026694877
0.026697885
0.026700598
0.026703014
0.026705157
0.026707062
0.026708548
0.026709776
0.026710709
0.02671136
0.026711749
0.026711839
0.023077899
0.023084319
0.023091577
0.023098382
0.023104935
0.0231113
0.023117442
0.02312338
0.023129116
0.023134651
0.023139987
0.023145122
0.023150056
0.023154789
0.02315932
0.023163647
0.023167768
0.023171684
0.023175392
0.023178892
0.023182182
0.023185261
0.023188129
0.023190785
0.023193229
0.023195461
0.023197476
0.023199284
0.023200904
0.023202251
0.023203339
0.023204236
0.023204939
0.023205446
0.02320578
0.023205888
0.0201327
0.020137829
0.020142908
0.020147804
0.020152445
0.020156915
0.020161203
0.020165324
0.020169285
0.020173092
0.020176749
0.020180259
0.020183625
0.020186848
0.02018993
0.020192872
0.020195674
0.020198337
0.020200862
0.020203248
0.020205496
0.020207605
0.020209575
0.020211407
0.0202131
0.020214651
0.020216065
0.020217356
0.020218478
0.020219402
0.020220198
0.020220856
0.020221378
0.020221757
0.020222015
0.020222094
0.017663127
0.017667172
0.01767086
0.017674436
0.017677784
0.017680987
0.017684036
0.017686949
0.017689734
0.017692399
0.017694949
0.017697389
0.017699724
0.017701956
0.017704089
0.017706123
0.017708062
0.017709905
0.017711655
0.017713313
0.017714877
0.01771635
0.01771773
0.017719018
0.017720212
0.017721316
0.017722338
0.017723245
0.017724008
0.017724685
0.017725269
0.017725758
0.01772615
0.017726435
0.017726636
0.017726693
0.01556034
0.015563421
0.015566139
0.015568772
0.015571201
0.015573508
0.015575687
0.015577755
0.01557972
0.015581591
0.015583374
0.015585075
0.015586698
0.015588246
0.015589724
0.015591133
0.015592475
0.015593753
0.015594968
0.015596121
0.015597212
0.015598243
0.015599213
0.01560012
0.015600973
0.01560177
0.015602481
0.015603098
0.015603658
0.015604156
0.015604591
0.015604958
0.015605257
0.015605474
0.015605637
0.015605677
0.01377742
0.013779809
0.013781817
0.013783787
0.013785571
0.013787254
0.01378883
0.013790314
0.013791716
0.013793043
0.013794302
0.013795498
0.013796636
0.013797721
0.013798754
0.013799738
0.013800677
0.01380157
0.013802421
0.013803231
0.013804
0.013804729
0.013805418
0.013806073
0.013806693
0.013807239
0.013807731
0.013808183
0.013808595
0.013808965
0.013809291
0.013809569
0.013809801
0.013809965
0.013810101
0.01381013
0.012254413
0.012256312
0.012257795
0.012259271
0.01226059
0.012261821
0.012262963
0.012264029
0.012265029
0.012265969
0.012266856
0.012267695
0.012268492
0.012269247
0.012269965
0.012270649
0.0122713
0.012271921
0.012272514
0.012273081
0.012273621
0.012274138
0.012274634
0.012275104
0.012275512
0.012275899
0.012276258
0.01227659
0.012276895
0.01227717
0.012277417
0.012277627
0.01227781
0.012277934
0.01227805
0.012278068
0.01095438
0.010955914
0.01095705
0.010958167
0.010959149
0.010960057
0.010960886
0.01096165
0.01096236
0.010963022
0.010963643
0.010964228
0.010964779
0.010965298
0.01096579
0.010966261
0.010966714
0.010967154
0.010967582
0.010967997
0.010968402
0.010968793
0.010969147
0.010969459
0.010969757
0.010970036
0.010970299
0.010970544
0.010970771
0.010970978
0.010971168
0.010971328
0.010971479
0.010971574
0.010971672
0.01097169
0.0098681484
0.0098693009
0.0098702238
0.0098711247
0.0098719093
0.0098726639
0.0098733709
0.0098740345
0.0098746606
0.0098752511
0.0098758028
0.0098763149
0.009876788
0.0098772256
0.0098776372
0.0098780265
0.0098783929
0.0098787304
0.0098790336
0.0098793042
0.0098795461
0.0098797445
0.0098799365
0.0098801135
0.0098802809
0.0098804384
0.00988059
0.0098807323
0.0098808725
0.0098810046
0.0098811477
0.0098812715
0.0098814031
0.0098814649
0.0098815157
0.0098814741
0.030337674
0.033598251
0.037022304
0.040785412
0.044941126
0.049488837
0.054458954
0.05988465
0.0657939
0.072216356
0.079177695
0.086702279
0.094804927
0.10349587
0.11276825
0.12260283
0.13295505
0.14375557
0.15489816
0.16623749
0.17757834
0.18867401
0.19921459
0.20887485
0.21718143
0.22372115
0.22802373
0.22960339
0.22806173
0.22300657
0.21412585
0.20143556
0.18479535
0.16430671
0.14041728
0.11339427
0.083818063
0.052214949
0.018910774
-0.015562361
-0.05071243
-0.08602693
-0.12115629
-0.15575348
-0.18990099
-0.22236964
0.030337603
0.033598211
0.037022179
0.040785255
0.04494095
0.049488647
0.054458757
0.059884453
0.0657937
0.072216141
0.079177465
0.086702052
0.094804714
0.10349568
0.11276809
0.12260274
0.13295504
0.14375587
0.15489866
0.16623829
0.17757957
0.18867568
0.19921654
0.20887721
0.21718432
0.22372415
0.22802727
0.22960718
0.22806576
0.22301098
0.21413361
0.20143842
0.18479596
0.16431102
0.14042084
0.11339955
0.083818157
0.052190781
0.01888375
-0.0155835
-0.050721852
-0.0860268
-0.12116184
-0.15575143
-0.18992897
-0.22239061
0.03033678
0.033597691
0.037021508
0.040784522
0.044940146
0.049487752
0.054457756
0.059883332
0.06579247
0.072214798
0.07917601
0.086700495
0.094803057
0.10349393
0.11276627
0.12260087
0.13295319
0.14375405
0.15489693
0.16623682
0.17757853
0.18867538
0.19921783
0.20888046
0.21718837
0.22373042
0.22803611
0.22961883
0.22808068
0.22302939
0.21415576
0.20145802
0.18481892
0.16434147
0.14044976
0.11343329
0.083847686
0.052215099
0.018910209
-0.015556092
-0.050692585
-0.086002306
-0.12114071
-0.15573989
-0.18985352
-0.22240606
0.030335494
0.033596915
0.037020429
0.040783293
0.044938757
0.0494862
0.054456017
0.0598814
0.065790358
0.072212469
0.079173471
0.08669772
0.094800064
0.1034907
0.11276285
0.1225973
0.13294958
0.14375053
0.15489372
0.16623404
0.17757654
0.18867475
0.1992204
0.20888466
0.21719597
0.22374273
0.22805372
0.22964238
0.22811112
0.22306681
0.21420138
0.20150614
0.18487314
0.16440468
0.14051373
0.11350326
0.083915293
0.052270423
0.018958472
-0.015510097
-0.050642779
-0.085949652
-0.12108903
-0.15568771
-0.18976732
-0.22242016
0.030333731
0.033595749
0.037018848
0.040781514
0.044936753
0.04948394
0.05445346
0.059878516
0.06578713
0.072208839
0.079169429
0.086693213
0.094795099
0.10348524
0.11275695
0.122591
0.13294303
0.14374392
0.15488737
0.16622848
0.17757253
0.1886732
0.19922156
0.20889075
0.21720828
0.22376304
0.22808359
0.22968326
0.22816499
0.22313421
0.21428353
0.20159641
0.18497488
0.16452157
0.1406358
0.11363436
0.084044699
0.052388242
0.019073233
-0.015393841
-0.050522103
-0.085830912
-0.12097572
-0.15558557
-0.18963124
-0.22234935
0.030331465
0.033594161
0.037016753
0.040779142
0.044934053
0.049480866
0.054449957
0.059874535
0.065782631
0.072203741
0.079163702
0.086686771
0.094787932
0.10347728
0.11274826
0.12258163
0.13293318
0.14373386
0.15487761
0.16621971
0.17756576
0.18866958
0.19922308
0.20890043
0.2172276
0.2237955
0.22813224
0.22975078
0.22825503
0.22324787
0.21442221
0.2017538
0.18515383
0.16472474
0.14085073
0.1138627
0.084274186
0.052606412
0.01928529
-0.015185723
-0.050315536
-0.085630234
-0.12078235
-0.15540386
-0.18942097
-0.22221126
0.03032873
0.033592098
0.037014096
0.040776104
0.044930567
0.049476862
0.054445358
0.059869259
0.065776606
0.072196844
0.079155861
0.086677852
0.094777887
0.103466
0.11273579
0.12256801
0.13291867
0.14371883
0.15486278
0.16620613
0.17755502
0.18866378
0.19922521
0.20891403
0.21725671
0.22384562
0.22820849
0.22985794
0.22839947
0.2234318
0.2146477
0.2020152
0.1854526
0.16506218
0.14121175
0.11424553
0.08466351
0.052986222
0.019658842
-0.014816235
-0.049948307
-0.08527128
-0.1204344
-0.15507516
-0.18908009
-0.22193
0.030325704
0.033589526
0.037010826
0.04077233
0.04492619
0.049471786
0.05443947
0.059862436
0.065768728
0.072187735
0.079145393
0.086665822
0.094764187
0.10345046
0.11271841
0.12254882
0.13289798
0.14369716
0.15484113
0.16618601
0.1775388
0.18865468
0.19922794
0.20893303
0.21730021
0.22392157
0.22832539
0.23002381
0.2286253
0.22372185
0.21500475
0.20243521
0.18593541
0.16560692
0.14179939
0.11486865
0.085302302
0.053619923
0.020285695
-0.014197653
-0.049340111
-0.08468157
-0.11986625
-0.15453688
-0.18854702
-0.22145424
0.030322407
0.033586398
0.037006892
0.040767737
0.044920805
0.049465469
0.054432064
0.059853759
0.065758595
0.072175892
0.079131632
0.086649841
0.094745787
0.10342938
0.11269457
0.12252223
0.13286899
0.14366646
0.15481008
0.16615678
0.1775148
0.1886408
0.19923126
0.20895981
0.21736412
0.2240345
0.22850106
0.23027566
0.22897037
0.2241681
0.21555771
0.20309292
0.18669541
0.16646463
0.14273045
0.11585723
0.086321794
0.054642759
0.021302556
-0.013193111
-0.048353704
-0.083723228
-0.1189405
-0.15365337
-0.18769108
-0.22066182
0.030318746
0.033582665
0.037002232
0.040762229
0.04491427
0.049457713
0.054422864
0.059842858
0.065745714
0.072160672
0.079113742
0.086628841
0.09472134
0.10340107
0.11266223
0.12248578
0.13282885
0.14362351
0.15476615
0.16611494
0.17747993
0.18862005
0.1992351
0.20899733
0.21745642
0.22419965
0.22876039
0.23065131
0.2294872
0.2248406
0.21639677
0.20409886
0.18786358
0.16778505
0.14417096
0.11739019
0.087910389
0.05624898
0.022905678
-0.011608287
-0.0468004
-0.082216324
-0.11748824
-0.15226665
-0.18636108
-0.21940709
0.03031471
0.033578296
0.036996779
0.040755693
0.04490642
0.049448284
0.054411549
0.059829292
0.065729497
0.072141292
0.079090703
0.086601509
0.094689175
0.10336345
0.11261881
0.12243637
0.13277387
0.14356411
0.1547048
0.16605585
0.17742997
0.18858949
0.19923907
0.20904918
0.21758741
0.22443672
0.22913621
0.23120049
0.23024406
0.22583322
0.2176457
0.20560382
0.1896187
0.16977284
0.14634899
0.11971447
0.09032841
0.058707395
0.025367195
-0.0091723437
-0.044413538
-0.079899765
-0.11525465
-0.15012926
-0.18431886
-0.21748327
0.030310283
0.033573245
0.036990454
0.04074801
0.044897075
0.049436921
0.054397749
0.059812555
0.065709253
0.072116836
0.079061307
0.086566274
0.094647281
0.10331398
0.11256115
0.12237016
0.13269954
0.14348307
0.15462029
0.16597361
0.17735947
0.18854519
0.19924229
0.20911918
0.21776953
0.22477008
0.22966859
0.23198966
0.23132861
0.22725991
0.21946095
0.20780358
0.19219442
0.17269742
0.14956648
0.12315823
0.093923123
0.06237727
0.029051409
-0.0055224456
-0.040836842
-0.076427992
-0.11190697
-0.14692133
-0.18124363
-0.21454849
0.030305431
0.033567466
0.03698318
0.040739053
0.044886046
0.049423344
0.054381068
0.059792091
0.065684225
0.072086276
0.07902419
0.086521355
0.094593357
0.10324974
0.11248562
0.1222827
0.13260051
0.14337423
0.15450579
0.16586109
0.17726171
0.18848214
0.19924364
0.2092107
0.21801612
0.22522703
0.23040502
0.23308396
0.23284766
0.2292755
0.2220289
0.21093277
0.19587477
0.1768911
0.154198
0.12813121
0.099130062
0.067709918
0.034416055
-0.0002030017
-0.03562355
-0.071368414
-0.10703144
-0.1422567
-0.17679628
-0.21036081
0.030300122
0.033560925
0.036974888
0.040728706
0.044873148
0.049407279
0.054361106
0.059767336
0.065653628
0.072048551
0.078977929
0.086464871
0.09452496
0.10316761
0.11238829
0.12216914
0.13247097
0.14323078
0.15435367
0.16571019
0.17712879
0.18839357
0.19923889
0.20932837
0.21833924
0.22583442
0.23139265
0.23456107
0.2349154
0.23203173
0.22555359
0.21525444
0.20098344
0.18273652
0.16067917
0.13511412
0.10646339
0.075239875
0.042003816
0.007325851
-0.028244789
-0.064208091
-0.10012885
-0.13563962
-0.1704462
-0.20429601
0.030294326
0.033553602
0.036965526
0.040716873
0.044858228
0.049388487
0.054337511
0.059737782
0.065616751
0.072002677
0.078921192
0.086395053
0.09443977
0.10306459
0.11226536
0.12202478
0.1323052
0.14304596
0.1541562
0.16551251
0.17695218
0.18827099
0.19921884
0.20947678
0.2187474
0.22661292
0.23267139
0.23648658
0.23763066
0.23567353
0.23023577
0.22102885
0.20784759
0.19062784
0.16946761
0.14461959
0.11647735
0.085546804
0.052403838
0.017647771
-0.018135691
-0.054413975
-0.09071403
-0.12665984
-0.16190911
-0.19628162
0.030288014
0.033545496
0.036955068
0.040703502
0.044841187
0.049366808
0.054310034
0.059703064
0.065573065
0.071947917
0.078852966
0.086310532
0.094335967
0.10293832
0.11211378
0.12184578
0.13209845
0.14281407
0.15390669
0.16526045
0.17672364
0.18810619
0.19917712
0.20965006
0.21923962
0.22756916
0.23426002
0.23889767
0.24105761
0.24030176
0.23622207
0.2284595
0.21673846
0.20090878
0.18097845
0.15712667
0.12970084
0.09919081
0.066188011
0.031329089
-0.0047471685
-0.041456721
-0.078263923
-0.11476751
-0.15053632
-0.18547203
0.030281162
0.033536634
0.036943522
0.04068859
0.044822012
0.049342201
0.054278601
0.059663054
0.065522372
0.071883967
0.078772808
0.086210682
0.094212689
0.10278761
0.11193201
0.12163008
0.13184808
0.14253173
0.15360088
0.16494867
0.17643654
0.18789195
0.19910851
0.20983119
0.21980156
0.22868799
0.23614361
0.2417831
0.24519388
0.24593194
0.24355715
0.23763515
0.22780133
0.21379235
0.19549731
0.17299024
0.14654574
0.11662025
0.083816621
0.048815671
0.012326288
-0.024999045
-0.06254395
-0.099882292
-0.13648171
-0.17237019
0.03027376
0.033527067
0.03693094
0.040672207
0.044800791
0.049314784
0.05424336
0.059617941
0.065464905
0.071811119
0.078681071
0.086095924
0.094070423
0.10261304
0.11172063
0.1213783
0.13155459
0.14219915
0.15323839
0.16457571
0.17608751
0.18762168
0.19899899
0.21000129
0.22040516
0.22992767
0.23826451
0.24506828
0.24994877
0.25246277
0.25213891
0.24846821
0.24098053
0.22927387
0.21308461
0.19234045
0.16720509
0.13807206
0.10554521
0.070355421
0.033308118
-0.0048413518
-0.043349503
-0.081732069
-0.11929767
-0.15620891
0.030265806
0.033516861
0.036917409
0.040654489
0.044777725
0.049284842
0.05420471
0.059568268
0.065401394
0.071730338
0.078579015
0.085967884
0.093911233
0.10241716
0.11148279
0.12109416
0.13122226
0.14182096
0.15282374
0.16414517
0.17567791
0.18729219
0.19883855
0.21013923
0.22101087
0.23122322
0.24052488
0.24861556
0.25513957
0.25966554
0.26169858
0.26066266
0.25597376
0.24707045
0.23350172
0.21499918
0.1915647
0.16348062
0.13132774
0.095879712
0.058061438
0.018760773
-0.021110942
-0.060997285
-0.1000167
-0.13852308
0.030257317
0.033506091
0.036903048
0.040635631
0.044753112
0.049252812
0.054163274
0.059514903
0.065333025
0.071643218
0.078468754
0.085829322
0.093738673
0.10220448
0.11122408
0.12078445
0.13085905
0.14140615
0.15236647
0.16366618
0.17521471
0.18690557
0.19862025
0.21022064
0.22157188
0.23249646
0.24280159
0.2522435
0.26051424
0.26720865
0.27182327
0.27373039
0.27223667
0.26661044
0.25618492
0.24044163
0.21915909
0.19243672
0.1607935
0.12501903
0.08619147
0.045377896
0.003745662
-0.038010204
-0.078724459
-0.11893313
0.030248321
0.033494825
0.036887993
0.040615867
0.044727316
0.049219236
0.054119832
0.059458943
0.06526131
0.071551807
0.07835302
0.08568383
0.093557396
0.10198094
0.11095193
0.12045824
0.1304758
0.14096718
0.15188023
0.16315262
0.17471032
0.18646985
0.19834366
0.21023584
0.22204732
0.23367127
0.24496893
0.2557597
0.26579548
0.274713
0.28201999
0.28706023
0.28904995
0.28709173
0.28028932
0.26782373
0.24918535
0.22419155
0.19324219
0.15706836
0.11693157
0.074095168
0.030083738
-0.014227241
-0.057324967
-0.0999644
0.030238859
0.033483124
0.036872381
0.04059544
0.044700719
0.049184691
0.054075223
0.059401574
0.065187888
0.071458336
0.078234798
0.085535342
0.093372511
0.10175305
0.11067452
0.12012564
0.13008466
0.14051822
0.1513809
0.16262133
0.17418104
0.18599831
0.19801449
0.21017014
0.22241443
0.23469146
0.24692462
0.25899873
0.27073398
0.28182298
0.29180529
0.30002423
0.30563675
0.3076016
0.30480114
0.29607976
0.28058538
0.2577319
0.22773537
0.19112559
0.14939876
0.10398943
0.056983606
0.0095122158
-0.036361618
-0.081557508
0.030228979
0.033471036
0.036856337
0.040574574
0.044673684
0.049149724
0.054030241
0.059343918
0.065114319
0.07136493
0.078116938
0.085387624
0.093188919
0.10152711
0.11039979
0.11979644
0.12969745
0.14007322
0.15088442
0.16208973
0.17364484
0.18550773
0.19764591
0.2100346
0.22266338
0.23552554
0.24860418
0.26184767
0.27514888
0.28826593
0.30078829
0.31208587
0.32129487
0.32726635
0.32869327
0.32407079
0.31217524
0.29188681
0.26318106
0.22614414
0.18258517
0.13394043
0.083177288
0.031614647
-0.017848823
-0.066381414
0.030218738
0.033458599
0.036839965
0.040553461
0.044646512
0.049114794
0.053985553
0.059286925
0.065041916
0.071273375
0.078001832
0.085243832
0.093010725
0.10130837
0.11013436
0.11947887
0.1293242
0.1396441
0.15040465
0.16157344
0.17311861
0.18501544
0.19725449
0.20984067
0.22279971
0.23616907
0.24998504
0.26425509
0.27894498
0.29388224
0.30871952
0.32287442
0.3355001
0.34538398
0.35108002
0.35074884
0.34280067
0.32546738
0.2984581
0.26107541
0.215578
0.16302997
0.10784758
0.05125362
-0.0022957593
-0.054340255
0.030208189
0.033445845
0.036823349
0.040532244
0.044619431
0.049080242
0.053941658
0.059231295
0.064971652
0.071184995
0.077891253
0.085106303
0.092840965
0.10110071
0.10988315
0.11917902
0.12897238
0.13923986
0.1499522
0.16108478
0.17261638
0.18453708
0.19685704
0.20960646
0.22284196
0.23663875
0.25107931
0.26622369
0.28210691
0.29862421
0.31549809
0.33220817
0.3479533
0.36150173
0.37132686
0.37529252
0.37148076
0.35740138
0.3325129
0.29493274
0.24755991
0.19045628
0.1303052
0.067476536
0.009197505
-0.047070337
0.030197386
0.033432798
0.036806547
0.040511024
0.044592593
0.049046293
0.053898873
0.059177471
0.064904129
0.071100597
0.077786271
0.084976433
0.092681446
0.10090645
0.10964905
0.11890054
0.12864646
0.13886597
0.14953372
0.1606318
0.1721479
0.18408451
0.19646819
0.20935005
0.22281249
0.23696216
0.25192035
0.26779213
0.28467604
0.3025293
0.32114449
0.34007065
0.35856882
0.37542636
0.3890912
0.39718184
0.39751052
0.38684756
0.36445486
0.32687866
0.27787183
0.21568829
0.15030489
0.079993705
0.016752446
-0.04402542
0.030186369
0.033419483
0.0367896
0.040489855
0.044566076
0.049013061
0.053857356
0.059125669
0.064839642
0.071020573
0.077687396
0.084854883
0.092533006
0.10072664
0.1094334
0.11864506
0.12834849
0.13852498
0.14915251
0.1602188
0.17171894
0.18366567
0.19609904
0.20908725
0.22273363
0.23717099
0.25255236
0.26901959
0.28672755
0.305688
0.32575912
0.34656108
0.36742263
0.38717798
0.40429469
0.41619977
0.4204983
0.41325975
0.39362602
0.35627741
0.30599488
0.2384138
0.16782188
0.088733594
0.020518291
-0.045669234
0.03017517
0.03340592
0.036772541
0.040468774
0.044539918
0.048980577
0.053817132
0.059075906
0.064778189
0.070944898
0.077594573
0.084741554
0.092395498
0.10056107
0.10923592
0.11841226
0.12807814
0.13821668
0.14880859
0.15984636
0.17133118
0.18328416
0.19575634
0.20882971
0.22262468
0.23729428
0.25301795
0.26996802
0.2883475
0.30821359
0.32948305
0.35184525
0.37469448
0.3969257
0.41705949
0.4323801
0.44034131
0.43639269
0.41963197
0.38271032
0.33153405
0.2585028
0.18297679
0.094019921
0.021208145
-0.051317645
0.030163815
0.033392118
0.036755367
0.04044777
0.044514105
0.048948823
0.05377817
0.059028123
0.064719676
0.070873426
0.077507582
0.084636126
0.092268466
0.10040911
0.10905578
0.11820109
0.12783412
0.13793955
0.1485004
0.15951315
0.17098397
0.18294081
0.19544361
0.20858541
0.22250005
0.23735878
0.2533586
0.27069663
0.28961897
0.31021957
0.33246488
0.35610693
0.38060242
0.40491029
0.42762605
0.44592869
0.45716282
0.45626036
0.44233309
0.40598027
0.35425177
0.27598147
0.19594141
0.096418179
0.019430782
-0.0602722
0.030152325
0.033378113
0.036738116
0.040426852
0.0444886
0.048917707
0.053740306
0.058982068
0.064663731
0.070805631
0.077425702
0.084537638
0.092150659
0.10026918
0.10889099
0.11800911
0.12761355
0.13769031
0.14822436
0.15921554
0.17067408
0.18263353
0.19516101
0.20835843
0.22237043
0.23737897
0.25360465
0.27125699
0.29061732
0.31181171
0.3348485
0.35953431
0.38538234
0.41140807
0.43629546
0.45714693
0.47122918
0.47306393
0.46181766
0.42613518
0.37415622
0.29108993
0.20705665
0.096745863
0.015844268
-0.071229566
0.030140692
0.033363842
0.036720734
0.040405991
0.044463394
0.048887221
0.053703523
0.058937703
0.06461028
0.070741375
0.077348699
0.08444571
0.092041493
0.10014041
0.10874036
0.11783471
0.12741433
0.13746639
0.14797745
0.15895023
0.1703983
0.18235975
0.19490752
0.20815057
0.22224278
0.23738178
0.25377844
0.27168744
0.29140214
0.31307561
0.33675076
0.36228084
0.38922879
0.416665
0.4433592
0.46635714
0.48287226
0.4871087
0.47829822
0.44331271
0.39127366
0.30393738
0.21644032
0.095375402
0.011723886
-0.082309866
0.030129053
0.03334946
0.036703279
0.040385127
0.04443833
0.048857103
0.05366742
0.058894445
0.064558521
0.070679597
0.077275203
0.084358615
0.091938833
0.1000202
0.10860076
0.11767424
0.12723228
0.13726305
0.14775453
0.15871183
0.17015131
0.18211481
0.19468
0.2079615
0.22212026
0.23735802
0.25390605
0.27202233
0.2920256
0.31408953
0.33828519
0.36450301
0.39235495
0.42094002
0.44912032
0.47390914
0.4924632
0.49873849
0.49202
0.45763791
0.40555294
0.31442227
0.22388225
0.092641107
0.0080281074
-0.091257186
0.030117075
0.033334714
0.03668574
0.040364385
0.044413617
0.048827661
0.053632435
0.058852875
0.064509166
0.070621116
0.07720611
0.084277276
0.091843559
0.099909319
0.10847273
0.11752787
0.12706708
0.13707944
0.1475541
0.15849831
0.16993068
0.18189613
0.19447617
0.20778998
0.22200383
0.23732679
0.25399763
0.27228228
0.29251959
0.31489748
0.33951022
0.36628163
0.3948506
0.42438953
0.4538239
0.48009806
0.50033441
0.50833744
0.5034725
0.46973778
0.4177776
0.32355404
0.23050315
0.09073894
0.0035891943
-0.10008053
0.030105667
0.033319872
0.036667935
0.040343359
0.04438861
0.048797901
0.053597129
0.058811059
0.064459743
0.070562887
0.077137763
0.084197398
0.091750729
0.099802172
0.10835008
0.11738887
0.12691158
0.13690808
0.14736854
0.15830205
0.1697292
0.1816975
0.19429167
0.2076346
0.22189703
0.23729407
0.25406681
0.27249255
0.29292842
0.3155737
0.34053926
0.36777317
0.39696007
0.42724056
0.45760563
0.48507313
0.50675399
0.51630341
0.51319013
0.4802739
0.42875102
0.33225632
0.23733113
0.089324486
-0.001444816
-0.11114976
0.030093386
0.033304974
0.03665045
0.040322932
0.044364701
0.04876992
0.053564407
0.058772729
0.064414826
0.070510312
0.077076356
0.084125884
0.091667818
0.099706618
0.10824078
0.11726504
0.12677302
0.13675538
0.14720324
0.15812721
0.16954946
0.18151964
0.19412507
0.20749154
0.22179328
0.23724903
0.25410919
0.27265334
0.29323907
0.31608677
0.34132127
0.36891211
0.39855512
0.42946399
0.46073237
0.48926712
0.51208532
0.52274744
0.520677
0.48790489
0.43595067
0.33686548
0.23983054
0.084859072
-0.0040302035
-0.11925926
0.030081523
0.033289082
0.036631946
0.040300948
0.044338382
0.048738512
0.053527212
0.058728905
0.064363433
0.070450366
0.077006833
0.084045742
0.091576091
0.099602477
0.10812363
0.11713468
0.12662993
0.13660051
0.14703837
0.15795577
0.16937638
0.18135179
0.19397163
0.20736438
0.22170745
0.23722351
0.25415069
0.27281125
0.29355571
0.31661483
0.3421228
0.37007046
0.40018685
0.43177105
0.46375894
0.49296593
0.51646652
0.52777026
0.52610651
0.49286151
0.43980515
0.33771008
0.23847879
0.078039207
-0.0019635213
-0.11054866
-0.33741609
-0.33739731
-0.33735873
-0.33728555
-0.33720728
-0.33712835
-0.33716115
-0.3373749
-0.33819218
-0.34005145
-0.3432864
-0.34775136
-0.35402499
-0.36704331
-0.3871762
-0.4093927
-0.41954295
-0.4231967
-0.42083294
-0.41692115
-0.41307975
-0.41017568
-0.41048802
-0.4081142
-0.40203026
-0.39434421
-0.38687899
-0.38030838
-0.37423592
-0.36868973
-0.36440761
-0.36110294
-0.35804535
-0.35505394
-0.35287371
-0.35112554
-0.3512472
-0.35123131
-0.35122335
-0.35119456
-0.35121617
-0.3512779
-0.35144854
-0.35176783
-0.35237025
-0.35332265
-0.35504928
-0.35768789
-0.36162317
-0.36740808
-0.37073902
-0.37941983
-0.38604257
-0.38961298
-0.3921171
-0.39233873
-0.39237551
-0.39245376
-0.39328619
-0.39313122
-0.39307515
-0.39369451
-0.39472428
-0.39542045
-0.39596337
-0.39626316
-0.39540107
-0.39413314
-0.39270771
-0.39132133
-0.39045178
-0.38973317
-0.3622414
-0.36221638
-0.3622168
-0.36220252
-0.36222291
-0.36227341
-0.362434
-0.36274342
-0.36331799
-0.36427101
-0.36588492
-0.36806646
-0.37133436
-0.37625342
-0.38148065
-0.38819691
-0.39396347
-0.3968635
-0.39882243
-0.39925109
-0.3993
-0.39911864
-0.39910428
-0.39834273
-0.39714681
-0.39598659
-0.39498689
-0.39399113
-0.39291218
-0.39193415
-0.39109993
-0.39048588
-0.39017595
-0.39005526
-0.39009227
-0.3900574
-0.37183782
-0.37180828
-0.37180756
-0.37177231
-0.37177664
-0.37179149
-0.3718606
-0.37204795
-0.37243837
-0.37311305
-0.37425723
-0.37568023
-0.37793335
-0.38101711
-0.38422499
-0.38759498
-0.39205947
-0.39374514
-0.39543349
-0.39644919
-0.39704136
-0.39731011
-0.39771577
-0.39813948
-0.39863333
-0.39908612
-0.39935895
-0.39949964
-0.39953337
-0.39943559
-0.39917866
-0.39887367
-0.39859196
-0.39834194
-0.39809356
-0.39785372
-0.38028996
-0.38025626
-0.38025445
-0.38021197
-0.380209
-0.3802106
-0.38024435
-0.3803368
-0.38059474
-0.38106819
-0.38188022
-0.38285938
-0.38454744
-0.38640779
-0.38927736
-0.39112061
-0.39525754
-0.39647651
-0.39802297
-0.39883299
-0.39934255
-0.39952588
-0.39957762
-0.39948781
-0.39951096
-0.399663
-0.3999547
-0.40027872
-0.40056707
-0.40081234
-0.40101569
-0.40117112
-0.40124939
-0.40130204
-0.40133492
-0.40126241
-0.38789255
-0.38785496
-0.38785184
-0.38780304
-0.38779309
-0.38776748
-0.38777522
-0.38780693
-0.38791844
-0.38817741
-0.38867641
-0.38922315