/*--------------------------------*- C++ -*----------------------------------*\
| =========                 |                                                 |
| \\      /  F ield         | OpenFOAM: The Open Source CFD Toolbox           |
|  \\    /   O peration     | Version:  v2006                                 |
|   \\  /    A nd           | Website:  www.openfoam.com                      |
|    \\/     M anipulation  |                                                 |
\*---------------------------------------------------------------------------*/
FoamFile
{
    version     2.0;
    format      ascii;
    class       volScalarField;
    location    "6000";
    object      Cx;
}
// * * * * * * * * * * * * * * * * * * * * * * * * * * * * * * * * * * * * * //

dimensions      [0 1 0 0 0 0 0];


internalField   nonuniform List<scalar> 
21256
(
-4.16846
-4.167702
-4.1671089
-4.1666324
-4.1662412
-4.1659143
-4.165637
-4.165399
-4.1651926
-4.1650121
-4.1648532
-4.1647124
-4.1645873
-4.1644757
-4.1643762
-4.1642873
-4.1642083
-4.1641382
-4.1640767
-4.1640233
-4.163978
-4.1639406
-4.1639115
-4.1638911
-4.16388
-4.1638793
-4.1638903
-4.163915
-4.1639559
-4.1640167
-4.1641023
-4.1642197
-4.164379
-4.1645949
-4.16489
-4.1652995
-4.5015179
-4.5005245
-4.4997081
-4.4990231
-4.4984382
-4.4979311
-4.4974858
-4.4970904
-4.4967358
-4.4964151
-4.4961227
-4.4958544
-4.4956067
-4.4953767
-4.495162
-4.4949609
-4.4947715
-4.4945927
-4.4944233
-4.4942624
-4.4941092
-4.4939632
-4.4938239
-4.493691
-4.4935644
-4.4934441
-4.4933304
-4.4932238
-4.4931251
-4.4930357
-4.4929577
-4.4928937
-4.492848
-4.4928264
-4.4928375
-4.4928938
-4.8346346
-4.8334804
-4.8325095
-4.8316782
-4.8309558
-4.8303197
-4.8297532
-4.8292438
-4.8287816
-4.8283587
-4.8279692
-4.827608
-4.827271
-4.8269548
-4.8266567
-4.8263742
-4.8261052
-4.8258481
-4.8256014
-4.8253636
-4.8251336
-4.8249103
-4.8246929
-4.8244805
-4.8242723
-4.8240677
-4.8238661
-4.8236668
-4.8234695
-4.8232737
-4.8230789
-4.8228848
-4.8226907
-4.8224957
-4.8222978
-4.8220929
-5.167808
-5.1665699
-5.165514
-5.1645991
-5.1637957
-5.163082
-5.1624415
-5.1618617
-5.1613324
-5.1608458
-5.1603954
-5.1599759
-5.1595831
-5.1592133
-5.1588634
-5.1585307
-5.158213
-5.1579083
-5.1576147
-5.1573308
-5.1570551
-5.1567863
-5.156523
-5.1562642
-5.1560087
-5.1557553
-5.1555028
-5.1552498
-5.154995
-5.1547366
-5.1544724
-5.1541995
-5.153914
-5.1536099
-5.153278
-5.1529028
-5.5010366
-5.4997931
-5.4987224
-5.4977869
-5.4969594
-5.4962199
-5.4955528
-5.4949463
-5.4943909
-5.4938788
-5.493404
-5.4929613
-5.4925462
-5.4921553
-5.4917854
-5.4914339
-5.4910984
-5.4907768
-5.4904673
-5.4901683
-5.4898781
-5.4895955
-5.4893189
-5.4890471
-5.4887787
-5.4885122
-5.488246
-5.4879785
-5.4877075
-5.4874306
-5.4871444
-5.4868444
-5.4865247
-5.4861762
-5.4857852
-5.4853298
-5.8343193
-5.8331504
-5.8321358
-5.8312431
-5.8304486
-5.8297351
-5.829089
-5.8284999
-5.8279594
-5.8274606
-5.826998
-5.8265669
-5.8261634
-5.8257841
-5.8254261
-5.8250871
-5.8247648
-5.8244573
-5.8241628
-5.8238798
-5.8236068
-5.8233423
-5.8230852
-5.8228339
-5.8225872
-5.8223435
-5.8221013
-5.8218585
-5.821613
-5.8213618
-5.8211013
-5.8208263
-5.8205299
-5.8202018
-5.8198267
-5.8193806
-6.1676549
-6.1666419
-6.1657551
-6.1649689
-6.164265
-6.1636297
-6.1630524
-6.162525
-6.1620406
-6.1615938
-6.1611802
-6.1607958
-6.1604375
-6.1601026
-6.1597887
-6.1594937
-6.1592158
-6.1589534
-6.158705
-6.1584694
-6.1582451
-6.1580311
-6.1578263
-6.1576294
-6.1574393
-6.1572547
-6.157074
-6.1568956
-6.1567174
-6.1565365
-6.1563497
-6.1561519
-6.1559365
-6.155694
-6.15541
-6.1550624
-6.501043
-6.5002681
-6.4995811
-6.4989657
-6.4984101
-6.4979055
-6.4974452
-6.4970238
-6.4966369
-6.4962811
-6.4959533
-6.4956509
-6.4953718
-6.4951142
-6.4948764
-6.494657
-6.4944548
-6.4942687
-6.4940977
-6.4939408
-6.4937973
-6.4936662
-6.4935469
-6.4934384
-6.4933401
-6.4932509
-6.4931698
-6.4930956
-6.4930266
-6.4929609
-6.4928958
-6.4928277
-6.4927515
-6.4926599
-6.4925423
-6.4923824
-6.8344828
-6.8340293
-6.833615
-6.8332349
-6.8328856
-6.8325644
-6.8322693
-6.8319987
-6.831751
-6.8315252
-6.8313201
-6.831135
-6.8309691
-6.8308217
-6.8306922
-6.8305802
-6.8304851
-6.8304067
-6.8303444
-6.830298
-6.8302673
-6.8302518
-6.8302514
-6.8302657
-6.8302945
-6.8303375
-6.8303942
-6.8304642
-6.8305468
-6.8306412
-6.8307463
-6.8308606
-6.8309819
-6.831107
-6.8312314
-6.831348
-1.6008912
-1.6007123
-1.6005601
-1.6004301
-1.6003187
-1.6002231
-1.6001409
-1.6000703
-1.6000097
-1.599958
-1.5999142
-1.5998773
-1.5998468
-1.5998221
-1.5998028
-1.5997886
-1.5997792
-1.5997746
-1.5997746
-1.5997792
-1.5997886
-1.5998028
-1.5998221
-1.5998468
-1.5998773
-1.5999142
-1.599958
-1.6000097
-1.6000703
-1.6001409
-1.6002231
-1.6003187
-1.6004301
-1.6005601
-1.6007123
-1.6008912
-1.8091868
-1.8089952
-1.808829
-1.8086846
-1.808559
-1.8084498
-1.8083549
-1.8082726
-1.8082014
-1.8081402
-1.808088
-1.8080439
-1.8080072
-1.8079774
-1.8079541
-1.8079369
-1.8079255
-1.8079199
-1.8079199
-1.8079255
-1.8079369
-1.8079541
-1.8079774
-1.8080072
-1.8080439
-1.808088
-1.8081402
-1.8082014
-1.8082726
-1.8083549
-1.8084498
-1.808559
-1.8086846
-1.808829
-1.8089952
-1.8091868
-2.0341474
-2.0339429
-2.0337619
-2.0336019
-2.0334606
-2.033336
-2.0332266
-2.0331306
-2.033047
-2.0329745
-2.0329121
-2.0328592
-2.032815
-2.032779
-2.0327507
-2.0327297
-2.0327159
-2.032709
-2.032709
-2.0327159
-2.0327297
-2.0327507
-2.032779
-2.032815
-2.0328592
-2.0329121
-2.0329745
-2.033047
-2.0331306
-2.0332266
-2.033336
-2.0334606
-2.0336019
-2.0337619
-2.0339429
-2.0341474
-2.2771063
-2.2768887
-2.2766921
-2.2765152
-2.2763566
-2.2762148
-2.2760886
-2.2759768
-2.2758783
-2.2757923
-2.2757178
-2.2756542
-2.2756007
-2.2755569
-2.2755224
-2.2754968
-2.2754799
-2.2754715
-2.2754715
-2.2754799
-2.2754968
-2.2755224
-2.2755569
-2.2756007
-2.2756542
-2.2757178
-2.2757923
-2.2758783
-2.2759768
-2.2760886
-2.2762148
-2.2763566
-2.2765152
-2.2766921
-2.2768887
-2.2771063
-2.5395034
-2.5392723
-2.5390595
-2.5388646
-2.5386868
-2.5385256
-2.5383803
-2.53825
-2.5381341
-2.5380318
-2.5379426
-2.5378658
-2.537801
-2.5377476
-2.5377053
-2.5376739
-2.5376531
-2.5376427
-2.5376427
-2.5376531
-2.5376739
-2.5377053
-2.5377476
-2.537801
-2.5378658
-2.5379426
-2.5380318
-2.5381341
-2.53825
-2.5383803
-2.5385256
-2.5386868
-2.5388646
-2.5390595
-2.5392723
-2.5395034
-2.8228938
-2.8226491
-2.8224193
-2.822205
-2.8220064
-2.8218235
-2.8216562
-2.8215044
-2.8213678
-2.8212461
-2.8211389
-2.8210459
-2.8209669
-2.8209015
-2.8208495
-2.8208107
-2.8207849
-2.820772
-2.820772
-2.8207849
-2.8208107
-2.8208495
-2.8209015
-2.8209669
-2.8210459
-2.8211389
-2.8212461
-2.8213678
-2.8215044
-2.8216562
-2.8218235
-2.8220064
-2.822205
-2.8224193
-2.8226491
-2.8228938
-3.1289568
-3.1286984
-3.1284511
-3.1282162
-3.1279947
-3.1277875
-3.1275952
-3.1274183
-3.1272571
-3.1271119
-3.1269828
-3.1268699
-3.1267732
-3.1266926
-3.1266282
-3.12658
-3.1265478
-3.1265318
-3.1265318
-3.1265478
-3.12658
-3.1266282
-3.1266926
-3.1267732
-3.1268699
-3.1269828
-3.1271119
-3.1272571
-3.1274183
-3.1275952
-3.1277875
-3.1279947
-3.1282162
-3.1284511
-3.1286984
-3.1289568
-3.4595062
-3.4592341
-3.4589687
-3.4587119
-3.4584656
-3.4582312
-3.4580105
-3.4578043
-3.457614
-3.4574405
-3.4572845
-3.4571467
-3.4570276
-3.4569278
-3.4568475
-3.4567871
-3.4567467
-3.4567265
-3.4567265
-3.4567467
-3.4567871
-3.4568475
-3.4569278
-3.4570276
-3.4571467
-3.4572845
-3.4574405
-3.457614
-3.4578043
-3.4580105
-3.4582312
-3.4584656
-3.4587119
-3.4589687
-3.4592341
-3.4595062
-3.816501
-3.8162152
-3.8159312
-3.8156513
-3.815378
-3.8151135
-3.8148602
-3.81462
-3.8143951
-3.8141872
-3.813998
-3.813829
-3.8136817
-3.8135571
-3.8134563
-3.8133799
-3.8133287
-3.813303
-3.813303
-3.8133287
-3.8133799
-3.8134563
-3.8135571
-3.8136817
-3.813829
-3.813998
-3.8141872
-3.8143951
-3.81462
-3.8148602
-3.8151135
-3.815378
-3.8156513
-3.8159312
-3.8162152
-3.816501
-1.4398199
-1.3226521
-1.2146635
-1.1151348
-1.0234034
-0.93885842
-0.86093686
-0.78911986
-0.72292917
-0.66192403
-0.6056982
-0.55387728
-0.50611618
-0.46209685
-0.42152617
-0.38413397
-0.34967124
-0.3179085
-0.28863422
-0.26165346
-0.23678654
-0.21386787
-0.19274481
-0.17327669
-0.15533387
-0.13879685
-0.12355549
-0.10950829
-0.096561696
-0.084629477
-0.073632162
-0.063496505
-0.054154999
-0.045545421
-0.037610428
-0.030297165
-0.02355692
-0.017344793
-0.011619408
-0.0063426266
-0.0014792985
0.0030029725
0.0071340435
0.010941433
0.014450504
0.017684632
-1.4397975
-1.3226301
-1.2146418
-1.1151135
-1.0233826
-0.93883802
-0.86091694
-0.78910042
-0.72291025
-0.66190565
-0.60568038
-0.55386004
-0.50609953
-0.46208081
-0.42151076
-0.3841192
-0.34965712
-0.31789503
-0.28862141
-0.26164132
-0.23677506
-0.21385704
-0.19273464
-0.17326717
-0.15532498
-0.13878857
-0.12354781
-0.10950119
-0.096555149
-0.084623462
-0.073626654
-0.063491478
-0.054150424
-0.045541272
-0.037606675
-0.030293782
-0.023553877
-0.017342066
-0.01161697
-0.0063404518
-0.0014773635
0.0030046898
0.0071355644
0.010942778
0.01445169
0.017685676
-1.4397697
-1.3226029
-1.2146152
-1.1150876
-1.0233573
-0.93881349
-0.86089314
-0.78907738
-0.72288799
-0.66188419
-0.60565975
-0.55384025
-0.5060806
-0.46206275
-0.42149357
-0.38410288
-0.34964169
-0.31788047
-0.28860772
-0.26162848
-0.23676307
-0.21384587
-0.19272426
-0.17325757
-0.15531612
-0.13878043
-0.12354035
-0.10949437
-0.096548942
-0.084617827
-0.073621555
-0.063486877
-0.054146285
-0.045537559
-0.037603354
-0.030290818
-0.023551239
-0.017339723
-0.011614894
-0.0063386164
-0.0014757439
0.0030061165
0.0071368194
0.01094388
0.014452657
0.017686523
-1.4397355
-1.3225696
-1.2145829
-1.1150563
-1.0233271
-0.9387843
-0.86086506
-0.78905043
-0.72286218
-0.66185955
-0.60563628
-0.55381795
-0.50605948
-0.46204282
-0.42147481
-0.38408528
-0.34962522
-0.31786512
-0.28859345
-0.26161526
-0.23675086
-0.21383464
-0.19271396
-0.17324814
-0.15530753
-0.13877263
-0.12353328
-0.10948799
-0.096543197
-0.084612669
-0.073616937
-0.063482754
-0.054142613
-0.045534296
-0.037600461
-0.030288259
-0.02354898
-0.017337733
-0.011613143
-0.0063370783
-0.0014743946
0.003007299
0.0071378544
0.010944785
0.014453449
0.017687216
-1.4396936
-1.3225292
-1.214544
-1.1150189
-1.0232912
-0.93875006
-0.86083242
-0.7890194
-0.72283278
-0.66183176
-0.6056101
-0.55379337
-0.50603647
-0.46202134
-0.42145483
-0.38406675
-0.3496081
-0.31784935
-0.28857897
-0.26160201
-0.23673877
-0.21382365
-0.192704
-0.17323914
-0.15529942
-0.13876534
-0.12352675
-0.10948216
-0.096537996
-0.084608046
-0.073612837
-0.063479125
-0.054139408
-0.045531471
-0.037597976
-0.030286076
-0.023547065
-0.017336055
-0.011611674
-0.0063357938
-0.001473272
0.0030082798
0.0071387114
0.010945534
0.014454104
0.017687788
-1.4396428
-1.3224806
-1.2144976
-1.1149748
-1.0232494
-0.93871051
-0.86079514
-0.78898437
-0.72279996
-0.66180112
-0.60558158
-0.5537669
-0.50601199
-0.46199878
-0.4214341
-0.38404777
-0.34959077
-0.31783359
-0.28856468
-0.26158908
-0.23672712
-0.21381317
-0.19269461
-0.17323075
-0.15529194
-0.13875868
-0.12352085
-0.10947693
-0.09653338
-0.084603977
-0.073609257
-0.06347598
-0.05413665
-0.045529055
-0.037595862
-0.030284228
-0.023545451
-0.017334646
-0.011610445
-0.0063347208
-0.0014723353
0.0030090979
0.0071394266
0.01094616
0.014454652
0.01768827
-1.4395816
-1.3224227
-1.2144431
-1.1149236
-1.0232014
-0.9386657
-0.86075342
-0.78894567
-0.72276417
-0.66176812
-0.60555126
-0.55373914
-0.50598665
-0.46197572
-0.42141318
-0.38402886
-0.34957372
-0.31781826
-0.28855094
-0.2615768
-0.23671617
-0.21380344
-0.19268597
-0.1732231
-0.15528519
-0.13875273
-0.12351562
-0.10947234
-0.096529353
-0.084600452
-0.073606174
-0.063473288
-0.0541343
-0.045527006
-0.037594076
-0.030282671
-0.023544094
-0.017333463
-0.011609413
-0.0063338196
-0.0014715474
0.0030097879
0.0071400319
0.010946693
0.014455122
0.017688686
-1.4395091
-1.3223551
-1.2143802
-1.1148652
-1.0231475
-0.93861604
-0.86070783
-0.78890395
-0.72272612
-0.66173353
-0.60551991
-0.55371082
-0.50596114
-0.46195281
-0.42139267
-0.38401054
-0.3495574
-0.31780376
-0.28853809
-0.26156544
-0.23670614
-0.21379461
-0.19267821
-0.1732163
-0.15527923
-0.13874752
-0.12351106
-0.10946836
-0.096525889
-0.084597435
-0.073603548
-0.063471003
-0.054132312
-0.045525276
-0.03759257
-0.03028136
-0.023542951
-0.017332465
-0.01160854
-0.0063330546
-0.0014708754
0.0030103799
0.0071405553
0.010947157
0.014455536
0.017689056
-1.4394244
-1.3222773
-1.2143089
-1.1148002
-1.0230883
-0.93856237
-0.86065931
-0.78886021
-0.72268681
-0.66169831
-0.60548843
-0.55368276
-0.5059362
-0.46193069
-0.42137311
-0.38399327
-0.3495422
-0.31779039
-0.28852636
-0.26155517
-0.23669717
-0.21378677
-0.19267138
-0.17321034
-0.15527405
-0.13874302
-0.12350715
-0.10946497
-0.096522942
-0.084594876
-0.073601326
-0.063469073
-0.054130635
-0.045523816
-0.037591298
-0.030280249
-0.02354198
-0.017331613
-0.011607791
-0.0063323939
-0.0014702901
0.0030109005
0.0071410205
0.010947575
0.014455913
0.017689399
-1.4393275
-1.3221898
-1.2142302
-1.1147296
-1.0230252
-0.93850603
-0.86060918
-0.78881572
-0.72264742
-0.66166351
-0.60545777
-0.5536558
-0.50591254
-0.46190996
-0.42135498
-0.38397744
-0.3495284
-0.31777839
-0.28851592
-0.2615461
-0.2366893
-0.21377995
-0.19266547
-0.17320523
-0.15526962
-0.13873919
-0.12350383
-0.10946209
-0.096520453
-0.084592718
-0.073599453
-0.063467445
-0.054129217
-0.045522579
-0.037590216
-0.0302793
-0.023541144
-0.017330875
-0.011607135
-0.0063318094
-0.0014697665
0.0030113723
0.0071414481
0.010947965
0.014456271
0.017689729
-1.4392195
-1.3220942
-1.2141459
-1.1146553
-1.0229599
-0.93844875
-0.86055904
-0.78877191
-0.7226092
-0.66163023
-0.60542883
-0.55363067
-0.50589074
-0.46189108
-0.42133864
-0.38396332
-0.3495162
-0.31776785
-0.28850683
-0.26153827
-0.23668254
-0.21377412
-0.19266044
-0.1732009
-0.15526588
-0.13873596
-0.12350104
-0.10945968
-0.096518361
-0.084590902
-0.073597873
-0.063466067
-0.054128011
-0.045521521
-0.037589283
-0.030278475
-0.02354041
-0.017330219
-0.011606547
-0.0063312776
-0.0014692829
0.0030118148
0.0071418555
0.010948342
0.014456623
0.01769006
-1.4391028
-1.3219932
-1.2140585
-1.1145798
-1.0228947
-0.93839257
-0.86051065
-0.78873027
-0.72257339
-0.66159946
-0.6054024
-0.55360798
-0.50587127
-0.46187438
-0.42132432
-0.38395104
-0.34950567
-0.31775882
-0.28849909
-0.26153162
-0.23667684
-0.21376922
-0.19265623
-0.17319727
-0.15526276
-0.13873326
-0.12349871
-0.10945766
-0.096516604
-0.084589371
-0.073596534
-0.063464891
-0.054126975
-0.045520603
-0.037588466
-0.030277743
-0.023539752
-0.017329623
-0.011606003
-0.0063307783
-0.0014688215
0.0030122439
0.0071422573
0.010948721
0.014456982
0.017690402
-1.4389816
-1.3218906
-1.2139716
-1.1145062
-1.0228323
-0.93833966
-0.86046577
-0.78869219
-0.72254107
-0.66157201
-0.60537909
-0.55358817
-0.50585443
-0.46186005
-0.42131212
-0.38394065
-0.34949681
-0.31775127
-0.28849264
-0.26152611
-0.23667212
-0.21376517
-0.19265275
-0.17319428
-0.15526017
-0.13873102
-0.12349677
-0.10945597
-0.096515128
-0.084588075
-0.073595391
-0.063463878
-0.054126072
-0.045519794
-0.037587736
-0.03027708
-0.023539146
-0.017329065
-0.011605485
-0.0063302957
-0.0014683683
0.0030126722
0.0071426645
0.01094911
0.014457356
0.017690764
-1.438862
-1.3217916
-1.2138894
-1.1144378
-1.0227754
-0.93829211
-0.860426
-0.78865887
-0.72251311
-0.66154852
-0.60535931
-0.5535715
-0.50584037
-0.46184817
-0.42130206
-0.38393213
-0.34948958
-0.31774511
-0.28848739
-0.26152163
-0.23666828
-0.21376188
-0.19264992
-0.17319183
-0.15525806
-0.13872918
-0.12349516
-0.10945456
-0.096513885
-0.084586972
-0.073594407
-0.063462995
-0.054125274
-0.045519067
-0.03758707
-0.030276466
-0.023538574
-0.01732853
-0.011604982
-0.0063298186
-0.0014679133
0.0030131085
0.007143085
0.010949517
0.014457752
0.01769115
-1.4387515
-1.321702
-1.2138165
-1.1143782
-1.0227264
-0.93825179
-0.86039267
-0.78863124
-0.72249015
-0.66152938
-0.60534333
-0.55355812
-0.50582913
-0.46183872
-0.42129409
-0.38392539
-0.34948387
-0.31774026
-0.28848326
-0.26151809
-0.23666525
-0.21375928
-0.19264767
-0.17318988
-0.15525635
-0.13872769
-0.12349384
-0.10945339
-0.096512837
-0.08458603
-0.073593554
-0.063462216
-0.054124558
-0.045518405
-0.037586453
-0.030275886
-0.023538027
-0.01732801
-0.011604484
-0.0063293401
-0.001467451
0.0030135573
0.0071435224
0.010949945
0.014458172
0.017691563
-1.4386585
-1.3216281
-1.2137572
-1.1143304
-1.0226877
-0.93822021
-0.86036682
-0.78860999
-0.72247261
-0.66151485
-0.60533125
-0.55354805
-0.5058207
-0.46183164
-0.42128813
-0.38392035
-0.34947959
-0.31773662
-0.28848015
-0.26151542
-0.23666295
-0.21375728
-0.19264592
-0.17318835
-0.155255
-0.13872649
-0.12349277
-0.10945242
-0.096511957
-0.084585225
-0.073592812
-0.063461527
-0.054123913
-0.045517797
-0.037585876
-0.030275336
-0.023537499
-0.0173275
-0.01160399
-0.0063288585
-0.0014669803
0.0030140188
0.0071439762
0.010950393
0.014458614
0.017692001
-1.4385911
-1.3215752
-1.2137154
-1.114297
-1.0226608
-0.9381985
-0.86034915
-0.78859554
-0.72246073
-0.66150504
-0.60532311
-0.55354126
-0.50581503
-0.46182687
-0.4212841
-0.38391693
-0.34947667
-0.31773412
-0.28847799
-0.26151355
-0.23666131
-0.21375584
-0.19264465
-0.17318721
-0.15525397
-0.13872556
-0.12349192
-0.10945164
-0.09651123
-0.084584545
-0.073592171
-0.063460918
-0.054123332
-0.045517239
-0.037585337
-0.030274813
-0.023536989
-0.017327001
-0.0116035
-0.0063283769
-0.0014665052
0.0030144886
0.0071444416
0.010950854
0.014459073
0.017692457
-1.4385556
-1.3215476
-1.2136937
-1.1142798
-1.022647
-0.93818738
-0.86034012
-0.78858814
-0.72245464
-0.6615
-0.60531891
-0.55353774
-0.50581205
-0.46182434
-0.42128193
-0.38391506
-0.34947505
-0.3177327
-0.28847673
-0.26151243
-0.2366603
-0.21375492
-0.19264382
-0.17318644
-0.15525326
-0.13872489
-0.12349128
-0.10945103
-0.096510651
-0.084583987
-0.07359163
-0.063460392
-0.054122817
-0.045516734
-0.03758484
-0.030274322
-0.023536504
-0.017326521
-0.011603024
-0.0063279029
-0.0014660335
0.0030149584
0.0071449099
0.010951321
0.014459539
0.017692923
-1.4385555
-1.3215475
-1.2136936
-1.1142797
-1.0226469
-0.93818721
-0.86033992
-0.78858793
-0.72245441
-0.66149974
-0.60531863
-0.55353745
-0.50581174
-0.46182402
-0.42128161
-0.38391472
-0.3494747
-0.31773234
-0.28847636
-0.26151205
-0.23665992
-0.21375453
-0.19264342
-0.17318603
-0.15525285
-0.13872447
-0.12349086
-0.10945061
-0.096510223
-0.084583555
-0.073591195
-0.063459953
-0.054122376
-0.04551629
-0.037584394
-0.030273874
-0.023536054
-0.017326068
-0.01160257
-0.0063274474
-0.0014655765
0.0030154167
0.0071453695
0.010951782
0.014460001
0.017693385
-1.438591
-1.321575
-1.2137151
-1.1142967
-1.0226604
-0.93819799
-0.86034858
-0.78859489
-0.72246002
-0.66150428
-0.6053223
-0.5535404
-0.50581412
-0.46182593
-0.42128312
-0.38391592
-0.34947563
-0.31773305
-0.28847689
-0.26151242
-0.23666016
-0.21375467
-0.19264346
-0.173186
-0.15525275
-0.13872432
-0.12349067
-0.10945038
-0.096509959
-0.084583262
-0.073590878
-0.063459617
-0.054122022
-0.045515921
-0.037584012
-0.030273481
-0.023535651
-0.017325658
-0.011602152
-0.0063270233
-0.0014651472
0.0030158506
0.0071458074
0.010952223
0.014460445
0.017693832
-1.4386584
-1.3216278
-1.2137568
-1.1143299
-1.022687
-0.93821938
-0.86036587
-0.78860893
-0.72247146
-0.66151361
-0.60532992
-0.55354664
-0.50581923
-0.4618301
-0.42128653
-0.3839187
-0.34947789
-0.31773487
-0.28847835
-0.26151359
-0.23666107
-0.21375537
-0.19264399
-0.17318638
-0.155253
-0.13872447
-0.12349073
-0.10945036
-0.096509877
-0.084583127
-0.073590697
-0.063459397
-0.05412177
-0.045515641
-0.037583708
-0.030273157
-0.02353531
-0.017325302
-0.011601784
-0.0063266445
-0.0014647591
0.0030162466
0.0071462102
0.010952632
0.014460859
0.01769425
-1.4387514
-1.3217017
-1.2138159
-1.1143774
-1.0227254
-0.93825066
-0.86039138
-0.7886298
-0.72248858
-0.66152769
-0.60534152
-0.55355621
-0.50582712
-0.46183662
-0.42129192
-0.38392314
-0.34948154
-0.31773787
-0.28848081
-0.26151559
-0.2366627
-0.21375668
-0.19264503
-0.1731872
-0.15525363
-0.13872494
-0.12349106
-0.10945058
-0.096510003
-0.084583172
-0.073590674
-0.063459315
-0.054121639
-0.045515468
-0.0375835
-0.030272919
-0.023535046
-0.017325016
-0.011601479
-0.0063263238
-0.0014644249
0.0030165924
0.0071465658
0.010952996
0.01446123
0.017694628
-1.4388619
-1.3217911
-1.2138887
-1.1144369
-1.0227742
-0.93829071
-0.8604244
-0.78865708
-0.72251116
-0.66154641
-0.60535707
-0.55356913
-0.50583787
-0.46184557
-0.42129936
-0.38392933
-0.34948669
-0.31774215
-0.28848435
-0.26151852
-0.23666511
-0.21375866
-0.19264665
-0.17318851
-0.15525468
-0.13872577
-0.12349171
-0.10945107
-0.096510365
-0.084583423
-0.073590831
-0.063459393
-0.054121648
-0.04551542
-0.037583403
-0.03027278
-0.023534872
-0.017324812
-0.01160125
-0.0063260732
-0.0014641558
0.0030168773
0.0071468642
0.010953306
0.01446155
0.017694956
-1.4389814
-1.3218901
-1.2139707
-1.114505
-1.0228309
-0.93833801
-0.86046389
-0.78869009
-0.72253879
-0.66156955
-0.60537646
-0.55358538
-0.5058515
-0.461857
-0.42130895
-0.38393737
-0.34949343
-0.31774779
-0.28848908
-0.26152246
-0.2366684
-0.21376139
-0.19264891
-0.17319037
-0.15525622
-0.13872702
-0.12349272
-0.10945188
-0.096511
-0.084583912
-0.073591196
-0.063459653
-0.05412182
-0.045515516
-0.037583435
-0.030272758
-0.023534803
-0.017324704
-0.011601108
-0.0063259028
-0.0014639612
0.0030170926
0.0071470971
0.010953554
0.01446181
0.017695228
-1.4391026
-1.3219926
-1.2140575
-1.1145785
-1.0228931
-0.93839071
-0.86050853
-0.78872791
-0.72257081
-0.66159667
-0.60539943
-0.55360484
-0.50586797
-0.46187094
-0.42132074
-0.38394734
-0.34950185
-0.3177549
-0.28849507
-0.26152751
-0.23667265
-0.21376496
-0.1926519
-0.17319287
-0.15525829
-0.13872874
-0.12349414
-0.10945305
-0.096511947
-0.084584675
-0.073591801
-0.063460125
-0.054122177
-0.045515777
-0.037583614
-0.030272867
-0.023534853
-0.017324703
-0.011601064
-0.0063258221
-0.0014638493
0.003017231
0.0071472581
0.010953734
0.014462007
0.017695438
-1.4392193
-1.3220936
-1.2141448
-1.1146539
-1.0229581
-0.93844671
-0.86055671
-0.78876932
-0.72260637
-0.66162718
-0.60542557
-0.55362722
-0.50588712
-0.4618873
-0.42133471
-0.38395926
-0.34951201
-0.31776355
-0.28850242
-0.26153376
-0.23667794
-0.21376944
-0.19265569
-0.17319607
-0.15526098
-0.138731
-0.12349603
-0.10945462
-0.096513252
-0.08458575
-0.073592681
-0.063460837
-0.054122748
-0.045516226
-0.03758396
-0.030273125
-0.023535036
-0.017324822
-0.011601128
-0.0063258403
-0.0014638279
0.0030172861
0.0071473419
0.010953842
0.014462136
0.017695585
-1.4393273
-1.3221891
-1.2142291
-1.1147281
-1.0230233
-0.93850384
-0.86060668
-0.78881294
-0.72264438
-0.66166023
-0.60545427
-0.5536521
-0.50590865
-0.4619059
-0.42135076
-0.38397308
-0.3495239
-0.31777376
-0.28851118
-0.26154126
-0.23668436
-0.21377492
-0.19266036
-0.17320004
-0.15526436
-0.13873386
-0.12349845
-0.10945666
-0.096514964
-0.084587182
-0.073593874
-0.063461826
-0.054123562
-0.04551689
-0.037584496
-0.030273551
-0.023535369
-0.017325075
-0.011601314
-0.0063259674
-0.0014639054
0.0030172509
0.0071473428
0.010953874
0.014462194
0.017695666
-1.4394242
-1.3222765
-1.2143077
-1.1147986
-1.0230864
-0.93856005
-0.86065667
-0.78885727
-0.7226836
-0.66169484
-0.60548474
-0.55367885
-0.50593209
-0.4619264
-0.42136864
-0.38398866
-0.34953744
-0.3177855
-0.28852135
-0.26155005
-0.23669194
-0.21378145
-0.19266597
-0.17320486
-0.15526849
-0.13873739
-0.12350146
-0.10945922
-0.096517137
-0.084589022
-0.073595426
-0.063463131
-0.054124654
-0.0455178
-0.037585249
-0.03027417
-0.023535873
-0.017325481
-0.011601634
-0.0063262157
-0.0014640918
0.0030171173
0.0071472544
0.010953824
0.014462177
0.017695677
-1.4395088
-1.3223543
-1.2143789
-1.1148636
-1.0231454
-0.93861361
-0.86070507
-0.78890088
-0.72272276
-0.66172991
-0.60551605
-0.55370673
-0.50595685
-0.46194832
-0.42138801
-0.38400571
-0.34955243
-0.31779865
-0.28853285
-0.26156009
-0.23670068
-0.21378905
-0.19267256
-0.17321056
-0.15527341
-0.13874164
-0.12350511
-0.10946235
-0.096519825
-0.084591319
-0.073597384
-0.063464796
-0.054126064
-0.045518991
-0.037586251
-0.030275009
-0.023536571
-0.017326058
-0.011602108
-0.0063266004
-0.0014644002
0.0030168745
0.0071470677
0.010953686
0.01446208
0.017695614
-1.4395814
-1.3224219
-1.2144418
-1.1149219
-1.0231993
-0.93866319
-0.86075056
-0.78894249
-0.72276069
-0.66176437
-0.60554726
-0.55373491
-0.50598221
-0.46197108
-0.42140836
-0.38402387
-0.34956858
-0.31781297
-0.28854552
-0.26157127
-0.23671052
-0.21379769
-0.19268013
-0.17321717
-0.15527918
-0.13874665
-0.12350946
-0.10946612
-0.096523078
-0.084594123
-0.073599796
-0.063466865
-0.054127835
-0.045520502
-0.037587536
-0.030276099
-0.023537492
-0.017326833
-0.011602757
-0.0063271408
-0.0014648468
0.0030165085
0.0071467711
0.010953449
0.014461894
0.017695472
-1.4396425
-1.3224797
-1.2144963
-1.114973
-1.0232472
-0.93870793
-0.8607922
-0.7889811
-0.72279639
-0.66179727
-0.60557747
-0.55376256
-0.50600743
-0.46199401
-0.42142915
-0.38404265
-0.34958549
-0.31782816
-0.28855911
-0.2615834
-0.23672132
-0.21380726
-0.1926886
-0.17322465
-0.15528576
-0.13875243
-0.12351452
-0.10947054
-0.096526934
-0.084597476
-0.073602705
-0.063469382
-0.054130009
-0.045522375
-0.037589145
-0.030277477
-0.02353867
-0.017327836
-0.011603608
-0.0063278604
-0.0014654525
0.0030160013
0.0071463488
0.0109531
0.014461608
0.017695241
-1.4396933
-1.3225284
-1.2145426
-1.1150171
-1.023289
-0.93874743
-0.86082942
-0.78901607
-0.72282913
-0.66182783
-0.60560591
-0.55378893
-0.50603181
-0.46201647
-0.42144977
-0.38406152
-0.3496027
-0.3178438
-0.28857329
-0.2615962
-0.23673285
-0.21381761
-0.19269786
-0.17323292
-0.15529311
-0.13875895
-0.12352029
-0.10947563
-0.096531413
-0.084601407
-0.073606146
-0.063472387
-0.054132626
-0.045524649
-0.037591116
-0.030279182
-0.023540139
-0.0173291
-0.011604693
-0.0063287876
-0.0014662429
0.0030153299
0.0071457808
0.010952621
0.014461207
0.017694907
-1.4397352
-1.3225688
-1.2145816
-1.1150545
-1.0233248
-0.93878163
-0.86086201
-0.78904704
-0.72285848
-0.66185555
-0.60563201
-0.55381344
-0.50605474
-0.46203787
-0.42146966
-0.38407996
-0.34961973
-0.31785948
-0.28858768
-0.26160936
-0.23674484
-0.21382851
-0.19270773
-0.17324182
-0.15530112
-0.13876613
-0.12352672
-0.10948136
-0.096536504
-0.08460592
-0.073610135
-0.063475903
-0.054135718
-0.04552736
-0.037593487
-0.03028125
-0.023541939
-0.017330663
-0.011606045
-0.0063299554
-0.0014672485
0.0030144664
0.0071450416
0.010951991
0.014460671
0.017694453
-1.4397694
-1.322602
-1.2146138
-1.1150858
-1.023355
-0.93881077
-0.86089005
-0.78907395
-0.72288424
-0.66188015
-0.60565543
-0.55383567
-0.50607579
-0.46205773
-0.42148836
-0.38409749
-0.34963613
-0.31787476
-0.28860187
-0.2616225
-0.23675696
-0.21383966
-0.19271795
-0.17325116
-0.15530962
-0.13877385
-0.1235337
-0.10948766
-0.096542162
-0.08461099
-0.073614664
-0.063479937
-0.0541393
-0.045530532
-0.037596289
-0.030283718
-0.023544107
-0.017332561
-0.011607704
-0.0063314007
-0.0014685047
0.0030133775
0.0071441002
0.010951179
0.014459973
0.017693855
-1.4397972
-1.3226292
-1.2146404
-1.1151116
-1.0233802
-0.93883528
-0.86091382
-0.78909696
-0.72290646
-0.66190156
-0.60567602
-0.55385542
-0.50609468
-0.46207575
-0.4215055
-0.38411375
-0.34965151
-0.31788926
-0.2886155
-0.26163527
-0.2367689
-0.21385077
-0.19272826
-0.17326069
-0.15531841
-0.13878193
-0.12354109
-0.1094944
-0.0965483
-0.084616554
-0.073619693
-0.063484467
-0.054143368
-0.045534174
-0.037599538
-0.030286609
-0.023546672
-0.01733483
-0.011609706
-0.0063331623
-0.0014700504
0.0030120249
0.0071429197
0.010950151
0.014459081
0.017693083
-1.4398196
-1.3226513
-1.2146621
-1.1151329
-1.0234011
-0.93885566
-0.86093372
-0.78911636
-0.72292534
-0.6619199
-0.6056938
-0.55387262
-0.50611129
-0.46209174
-0.42152086
-0.38412848
-0.34966559
-0.31790269
-0.28862826
-0.26164737
-0.23678033
-0.21386154
-0.19273838
-0.17327017
-0.15532726
-0.13879015
-0.12354872
-0.10950145
-0.096554792
-0.084622514
-0.073625145
-0.063489439
-0.054147886
-0.045538266
-0.037603234
-0.030289935
-0.023549656
-0.0173375
-0.011612086
-0.0063352787
-0.0014719266
0.0030103664
0.0071414577
0.010948866
0.014457955
0.017692098
0.99452256
0.9945272
0.99453307
0.99454046
0.99454973
0.99456133
0.99457577
0.99459364
0.99461559
0.99464232
0.99467451
0.99471278
0.99475757
0.99480907
0.99486705
0.99493085
0.99499928
0.99507071
0.99514318
0.99521462
0.99528307
0.99534689
0.9954049
0.99545642
0.99550124
0.99553952
0.99557173
0.99559847
0.99562043
0.9956383
0.99565275
0.99566435
0.99567363
0.99568101
0.99568688
0.99569153
0.98354483
0.98355646
0.98357113
0.98358961
0.98361281
0.98364183
0.98367796
0.98372266
0.98377758
0.98384444
0.98392497
0.98402071
0.98413277
0.98426159
0.98440665
0.98456626
0.98473745
0.98491613
0.98509741
0.9852761
0.98544732
0.98560695
0.98575205
0.9858809
0.98599299
0.98608874
0.98616929
0.98623617
0.98629109
0.9863358
0.98637193
0.98640095
0.98642416
0.98644264
0.98645731
0.98646894
0.97268617
0.97270239
0.97272286
0.97274864
0.97278101
0.97282149
0.97287189
0.97293425
0.97301086
0.97310414
0.97321648
0.97335004
0.97350636
0.97368608
0.97388844
0.9741111
0.97434991
0.97459918
0.97485207
0.97510136
0.9753402
0.9755629
0.97576531
0.97594506
0.97610142
0.97623501
0.97634737
0.97644067
0.97651729
0.97657966
0.97663006
0.97667055
0.97670292
0.9767287
0.97674917
0.97676539
0.9619388
0.96195982
0.96198636
0.96201978
0.96206175
0.96211424
0.96217957
0.96226043
0.96235975
0.96248069
0.96262634
0.96279949
0.96300217
0.96323517
0.96349754
0.96378621
0.96409583
0.96441901
0.96474688
0.96507008
0.96537976
0.96566849
0.96593092
0.96616398
0.96636671
0.9665399
0.96668559
0.96680655
0.9669059
0.96698676
0.96705211
0.9671046
0.96714657
0.96718
0.96720654
0.96722756
0.9512968
0.95132301
0.95135609
0.95139774
0.95145005
0.95151547
0.9515969
0.95169768
0.95182148
0.95197221
0.95215375
0.95236956
0.95262217
0.95291257
0.95323959
0.95359938
0.95398529
0.95438809
0.95479676
0.95519959
0.95558557
0.95594544
0.95627254
0.95656302
0.9568157
0.95703157
0.95721316
0.95736393
0.95748775
0.95758854
0.95766999
0.95773541
0.95778772
0.95782938
0.95786246
0.95788867
0.94075995