/*--------------------------------*- C++ -*----------------------------------*\
| =========                 |                                                 |
| \\      /  F ield         | OpenFOAM: The Open Source CFD Toolbox           |
|  \\    /   O peration     | Version:  v2006                                 |
|   \\  /    A nd           | Website:  www.openfoam.com                      |
|    \\/     M anipulation  |                                                 |
\*---------------------------------------------------------------------------*/
FoamFile
{
    version     2.0;
    format      ascii;
    class       volScalarField;
    location    "6000";
    object      Cy;
}
// * * * * * * * * * * * * * * * * * * * * * * * * * * * * * * * * * * * * * //

dimensions      [0 1 0 0 0 0 0];


internalField   nonuniform List<scalar> 
21256
(
-0.11935795
-0.11430375
-0.10966914
-0.10538107
-0.10138271
-0.097628665
-0.094081793
-0.090711226
-0.087490896
-0.08439842
-0.081414347
-0.078521547
-0.075704722
-0.07295003
-0.070244766
-0.0675771
-0.064935848
-0.062310272
-0.059689893
-0.057064318
-0.054423069
-0.051755407
-0.049050148
-0.046295463
-0.043478647
-0.040585859
-0.037601802
-0.034509345
-0.031289042
-0.027918508
-0.024371679
-0.020617689
-0.016619411
-0.012331444
-0.0076969834
-0.0026429912
-0.11917845
-0.11383229
-0.10901728
-0.10462439
-0.10057381
-0.096804886
-0.093270144
-0.089931483
-0.086757698
-0.083722692
-0.08080429
-0.07798333
-0.075242984
-0.072568236
-0.069945464
-0.067362109
-0.064806382
-0.062267028
-0.059733098
-0.057193744
-0.05463802
-0.052054667
-0.049431899
-0.046757156
-0.044016817
-0.041195866
-0.038277476
-0.035242484
-0.032068718
-0.028730083
-0.025195372
-0.021426496
-0.017375966
-0.012983153
-0.0081682495
-0.0028222371
-0.1189985
-0.11335966
-0.1083638
-0.10386584
-0.099762892
-0.095979066
-0.092456484
-0.089149808
-0.086022684
-0.083045291
-0.080192722
-0.077443782
-0.074780105
-0.072185498
-0.069645424
-0.067146587
-0.064676597
-0.062223677
-0.05977641
-0.057323491
-0.054853502
-0.052354666
-0.049814595
-0.047219991
-0.044556319
-0.041807384
-0.038954823
-0.03597744
-0.032850328
-0.029543669
-0.026021107
-0.022237308
-0.018134395
-0.013636477
-0.0086406857
-0.0030019269
-0.11881808
-0.11288584
-0.1077087
-0.1031054
-0.098949964
-0.095151194
-0.091640803
-0.088366193
-0.085285845
-0.082366209
-0.079579639
-0.076902897
-0.074316079
-0.071801814
-0.069344641
-0.066930532
-0.064546491
-0.06218022
-0.05981983
-0.057453559
-0.055069519
-0.05265541
-0.050198239
-0.047683975
-0.04509716
-0.04242042
-0.039633853
-0.036714222
-0.033633879
-0.030359276
-0.026848893
-0.023050133
-0.018894708
-0.014291424
-0.0091142973
-0.0031820618
-0.1186372
-0.11241083
-0.10705195
-0.10234307
-0.09813501
-0.094321261
-0.090823091
-0.087580627
-0.084547173
-0.081685439
-0.078965031
-0.076360667
-0.073850901
-0.071417177
-0.069043112
-0.066713942
-0.064416063
-0.062136656
-0.059863358
-0.057583951
-0.055286072
-0.052956901
-0.050582837
-0.048149112
-0.045639346
-0.043034982
-0.040314573
-0.037452838
-0.034419382
-0.031176916
-0.027678741
-0.023864983
-0.019656914
-0.014948003
-0.0095890896
-0.0033626432
-0.11845585
-0.11193462
-0.10639357
-0.10157883
-0.097318022
-0.093489255
-0.090003337
-0.0867931
-0.083806658
-0.081002971
-0.078348892
-0.075817088
-0.073384566
-0.071031583
-0.068740834
-0.066496814
-0.064285311
-0.062092984
-0.059906995
-0.057714668
-0.055503165
-0.053259144
-0.050968393
-0.048615409
-0.046182884
-0.043651076
-0.040996992
-0.038193299
-0.035206847
-0.031996597
-0.028510661
-0.024681868
-0.020421023
-0.015606221
-0.010065068
-0.0035436725
-0.11827404
-0.11145722
-0.10573353
-0.10081267
-0.096498987
-0.092655167
-0.089181533
-0.086003604
-0.083064291
-0.080318797
-0.077731213
-0.075272152
-0.072917067
-0.070645028
-0.068437803
-0.066279145
-0.064154234
-0.062049205
-0.059950742
-0.057845712
-0.055720799
-0.05356214
-0.051354912
-0.04908287
-0.04672778
-0.044268711
-0.041681118
-0.038935612
-0.035996283
-0.032818331
-0.029344663
-0.025500797
-0.021187044
-0.016266086
-0.010542238
-0.0037251514
-0.11809176
-0.1109786
-0.10507183
-0.10004459
-0.095677898
-0.091818986
-0.088357666
-0.085212127
-0.082320063
-0.07963291
-0.077111988
-0.074725852
-0.072448399
-0.070257508
-0.068134016
-0.066060934
-0.064022831
-0.062005316
-0.059994598
-0.057977083
-0.055938978
-0.053865894
-0.051742397
-0.049551501
-0.047274041
-0.044887895
-0.04236696
-0.039679788
-0.0367877
-0.033642126
-0.030180759
-0.02632178
-0.021954987
-0.016927607
-0.011020605
-0.0039070819
-0.11790901
-0.11049878
-0.10440846
-0.099274581
-0.094854742
-0.090980702
-0.087531728
-0.08441866
-0.081573965
-0.078945299
-0.07649121
-0.074178183
-0.071978558
-0.069869018
-0.067829469
-0.065842178
-0.0638911
-0.061961319
-0.060038565
-0.058108783
-0.056157703
-0.054170409
-0.052130854
-0.050021308
-0.047821673
-0.045508633
-0.043054526
-0.040425836
-0.037581108
-0.034467995
-0.031018958
-0.027144829
-0.022724861
-0.017590792
-0.011500175
-0.0040894657
-0.0016269767
-0.0048895254
-0.0081699466
-0.011468975
-0.01478686
-0.018123459
-0.021478315
-0.024850707
-0.028239697
-0.031644168
-0.035062848
-0.038494337
-0.041937128
-0.045389624
-0.048850156
-0.052316997
-0.055788375
-0.059262487
-0.062737513
-0.066211625
-0.069683003
-0.073149844
-0.076610376
-0.080062872
-0.083505663
-0.086937152
-0.090355832
-0.093760303
-0.097149293
-0.10052169
-0.10387654
-0.10721314
-0.11053102
-0.11383005
-0.11711047
-0.12037302
-0.0017072803
-0.0051126134
-0.0085027373
-0.011883061
-0.015257734
-0.018629905
-0.022001934
-0.025375532
-0.028751886
-0.032131759
-0.035515562
-0.038903415
-0.042295205
-0.045690622
-0.049089204
-0.052490369
-0.055893441
-0.059297682
-0.062702318
-0.066106559
-0.069509631
-0.072910796
-0.076309378
-0.079704795
-0.083096585
-0.086484438
-0.089868241
-0.093248114
-0.096624468
-0.099998066
-0.10337009
-0.10674227
-0.11011694
-0.11349726
-0.11688739
-0.12029272
-0.0017940087
-0.0053535508
-0.0088621551
-0.012330279
-0.015766282
-0.01917687
-0.022567444
-0.025942342
-0.029305046
-0.032658352
-0.036004485
-0.039345211
-0.042681918
-0.04601569
-0.049347368
-0.052677605
-0.056006909
-0.059335692
-0.062664308
-0.065993091
-0.069322395
-0.072652632
-0.07598431
-0.079318082
-0.082654789
-0.085995515
-0.089341648
-0.092694954
-0.096057658
-0.099432556
-0.10282313
-0.10623372
-0.10966972
-0.11313784
-0.11664645
-0.12020599
-0.001887676
-0.0056137655
-0.0092503307
-0.012813279
-0.016315519
-0.019767596
-0.023178196
-0.026554496
-0.029902455
-0.033227064
-0.036532513
-0.039822339
-0.043099557
-0.046366753
-0.049626176
-0.052879812
-0.056129449
-0.059376741
-0.062623259
-0.065870551
-0.069120188
-0.072373824
-0.075633247
-0.078900443
-0.082177661
-0.085467487
-0.088772936
-0.092097545
-0.095445504
-0.098821804
-0.1022324
-0.10568448
-0.10918672
-0.11274967
-0.11638623
-0.12011232
-0.0019888372
-0.0058947999
-0.0096695649
-0.013334925
-0.016908701
-0.020405585
-0.02383781
-0.02721562
-0.030547651
-0.033841265
-0.037102771
-0.040337624
-0.043550593
-0.046745887
-0.049927276
-0.053098186
-0.056261786
-0.059421071
-0.062578929
-0.065738214
-0.068901814
-0.072072724
-0.075254113
-0.078449407
-0.081662376
-0.084897229
-0.088158735
-0.091452349
-0.09478438
-0.09816219
-0.10159442
-0.1050913
-0.10866507
-0.11233044
-0.1161052
-0.12001116
-0.0020980919
-0.0061983195
-0.010122342
-0.01389831
-0.017549344
-0.021094617
-0.024550196
-0.027929632
-0.031244456
-0.034504591
-0.037718635
-0.040894116
-0.044037694
-0.047155335
-0.050252448
-0.053334017
-0.056404703
-0.059468946
-0.062531054
-0.065595297
-0.068665983
-0.071747552
-0.074844665
-0.077962306
-0.081105884
-0.084281365
-0.087495409
-0.090755544
-0.094070368
-0.097449804
-0.10090538
-0.10445066
-0.10810169
-0.11187766
-0.11580168
-0.11990191
-0.0022160875
-0.0065261234
-0.010611347
-0.014506771
-0.018241245
-0.021838779
-0.025319575
-0.028700764
-0.031996999
-0.035220971
-0.038383751
-0.041495105
-0.044563741
-0.047597516
-0.050603615
-0.053588701
-0.056559043
-0.059520646
-0.062479354
-0.065440957
-0.068411299
-0.071396385
-0.074402484
-0.077436259
-0.080504895
-0.083616249
-0.086779029
-0.090003001
-0.093299236
-0.096680425
-0.10016122
-0.10375875
-0.10749323
-0.11138865
-0.11547388
-0.11978391
-0.0023435233
-0.0068801541
-0.011139478
-0.015163918
-0.018988507
-0.022642479
-0.026150507
-0.029533583
-0.032809736
-0.035994645
-0.039102056
-0.042144148
-0.045131843
-0.048075044
-0.050982851
-0.053863739
-0.056725718
-0.059576479
-0.062423521
-0.065274282
-0.068136261
-0.071017149
-0.073924956
-0.076868157
-0.079855852
-0.082897944
-0.086005355
-0.089190264
-0.092466417
-0.095849493
-0.099357521
-0.10301149
-0.10683608
-0.11086052
-0.11511985
-0.11965648
-0.0024811545
-0.0072625101
-0.011709865
-0.015873643
-0.019795558
-0.023510483
-0.027047917
-0.030433025
-0.033687481
-0.036830194
-0.039877797
-0.042845082
-0.045745358
-0.048590739
-0.051392392
-0.054160754
-0.056905711
-0.059636773
-0.062363227
-0.065094289
-0.067839246
-0.070607608
-0.073409261
-0.076254642
-0.079154918
-0.082122203
-0.085169806
-0.088312519
-0.091566975
-0.094952083
-0.098489517
-0.10220444
-0.10612636
-0.11029014
-0.11473749
-0.11951885
-0.12046838
-0.12057832
-0.12067964
-0.12077303
-0.12085909
-0.12093842
-0.12101153
-0.12107891
-0.12114102
-0.12119826
-0.12125101
-0.12129963
-0.12134445
-0.12138575
-0.12142381
-0.1214589
-0.12149123
-0.12152104
-0.1215485
-0.12157382
-0.12159715
-0.12161865
-0.12163847
-0.12165674
-0.12167357
-0.12168909
-0.12170339
-0.12171657
-0.12172872
-0.12173991
-0.12175023
-0.12175974
-0.12176851
-0.12177658
-0.12178403
-0.12179089
-0.12179722
-0.12180304
-0.12180842
-0.12181337
-0.12181793
-0.12182214
-0.12182601
-0.12182958
-0.12183288
-0.12183591
-0.11738679
-0.11771463
-0.11801678
-0.11829526
-0.11855193
-0.11878848
-0.11900651
-0.11920745
-0.11939265
-0.11956334
-0.11972066
-0.11986566
-0.11999929
-0.12012246
-0.12023597
-0.12034059
-0.12043702
-0.12052589
-0.1206078
-0.12068329
-0.12075286
-0.12081699
-0.12087609
-0.12093056
-0.12098076
-0.12102703
-0.12106968
-0.12110898
-0.1211452
-0.12117859
-0.12120936
-0.12123771
-0.12126385
-0.12128794
-0.12131014
-0.1213306
-0.12134946
-0.12136684
-0.12138286
-0.12139762
-0.12141123
-0.12142377
-0.12143533
-0.12144598
-0.1214558
-0.12146485
-0.11426879
-0.1148097
-0.11530824
-0.11576771
-0.11619119
-0.1165815
-0.11694122
-0.11727276
-0.11757833
-0.11785996
-0.11811953
-0.11835875
-0.11857924
-0.11878245
-0.11896974
-0.11914236
-0.11930145
-0.11944808
-0.11958322
-0.11970777
-0.11982257
-0.11992836
-0.12002587
-0.12011574
-0.12019857
-0.12027491
-0.12034527
-0.12041011
-0.12046987
-0.12052496
-0.12057572
-0.12062251
-0.12066563
-0.12070537
-0.120742
-0.12077576
-0.12080687
-0.12083555
-0.12086198
-0.12088634
-0.12090879
-0.12092948
-0.12094855
-0.12096612
-0.12098232
-0.12099725
-0.11111503
-0.11186221
-0.11255086
-0.11318555
-0.11377052
-0.11430966
-0.11480656
-0.11526453
-0.11568663
-0.11607565
-0.11643419
-0.11676464
-0.11706921
-0.11734991
-0.11760861
-0.11784705
-0.11806681
-0.11826935
-0.11845601
-0.11862806
-0.11878662
-0.11893276
-0.11906745
-0.11919159
-0.119306
-0.11941144
-0.11950862
-0.11959819
-0.11968074
-0.11975683
-0.11982695
-0.11989157
-0.11995114
-0.12000603
-0.12005663
-0.12010326
-0.12014624
-0.12018585
-0.12022235
-0.120256
-0.12028701
-0.12031559
-0.12034193
-0.12036621
-0.12038858
-0.12040921
-0.10792602
-0.1088703
-0.1097406
-0.11054272
-0.11128199
-0.11196335
-0.11259132
-0.1131701
-0.11370352
-0.11419516
-0.11464828
-0.11506589
-0.11545078
-0.11580552
-0.11613247
-0.11643379
-0.11671151
-0.11696747
-0.11720337
-0.11742079
-0.11762118
-0.11780586
-0.11797607
-0.11813295
-0.11827753
-0.11841079
-0.1185336
-0.1186468
-0.11875112
-0.11884727
-0.11893588
-0.11901756
-0.11909283
-0.1191622
-0.11922614
-0.11928507
-0.11933939
-0.11938944
-0.11943558
-0.1194781
-0.11951729
-0.11955341
-0.1195867
-0.11961738
-0.11964566
-0.11967172
-0.10470212
-0.10583151
-0.10687241
-0.10783176
-0.10871595
-0.10953087
-0.11028194
-0.11097416
-0.11161214
-0.11220014
-0.11274207
-0.11324154
-0.11370188
-0.11412615
-0.11451717
-0.11487756
-0.11520971
-0.11551583
-0.11579797
-0.116058
-0.11629766
-0.11651854
-0.11672211
-0.11690973
-0.11708265
-0.11724203
-0.11738891
-0.11752429
-0.11764906
-0.11776405
-0.11787004
-0.11796772
-0.11805774
-0.11814072
-0.11821719
-0.11828767
-0.11835263
-0.1184125
-0.11846768
-0.11851853
-0.1185654
-0.1186086
-0.11864842
-0.11868511
-0.11871893
-0.1187501
-0.10144352
-0.10274273
-0.10394015
-0.10504375
-0.10606089
-0.10699833
-0.10786233
-0.10865862
-0.10939253
-0.11006894
-0.11069234
-0.1112669
-0.11179645
-0.1122845
-0.11273431
-0.11314887
-0.11353096
-0.1138831
-0.11420766
-0.11450678
-0.11478247
-0.11503656
-0.11527074
-0.11548657
-0.11568548
-0.11586882
-0.11603779
-0.11619352
-0.11633705
-0.11646933
-0.11659125
-0.11670362
-0.11680718
-0.11690263
-0.1169906
-0.11707168
-0.1171464
-0.11721527
-0.11727875
-0.11733725
-0.11739117
-0.11744087
-0.11748667
-0.11752888
-0.11756779
-0.11760365
-0.098150229
-0.099600222
-0.10093661
-0.10216828
-0.10330346
-0.10434968
-0.10531394
-0.10620264
-0.10702171
-0.1077766
-0.10847235
-0.10911358
-0.10970457
-0.11024925
-0.11075126
-0.11121393
-0.11164035
-0.11203336
-0.11239557
-0.11272941
-0.11303709
-0.11332066
-0.11358201
-0.11382289
-0.11404489
-0.1142495
-0.11443808
-0.11461188
-0.11477207
-0.11491971
-0.11505577
-0.11518118
-0.11529677
-0.11540329
-0.11550148
-0.11559196
-0.11567536
-0.11575223
-0.11582307
-0.11588837
-0.11594855
-0.11600401
-0.11605513
-0.11610224
-0.11614566
-0.11618569
-0.094822092
-0.096399667
-0.097853635
-0.099193679
-0.10042873
-0.10156701
-0.1026161
-0.10358299
-0.10447412
-0.10529543
-0.10605238
-0.10675003
-0.10739301
-0.10798562
-0.10853179
-0.10903517
-0.10949911
-0.1099267
-0.11032079
-0.110684
-0.11101875
-0.11132727
-0.11161163
-0.1118737
-0.11211524
-0.11233786
-0.11254303
-0.11273214
-0.11290642
-0.11306705
-0.1132151
-0.11335154
-0.1134773
-0.11359321
-0.11370003
-0.11379848
-0.11388923
-0.11397286
-0.11404994
-0.11412098
-0.11418646
-0.1142468
-0.11430242
-0.11435368
-0.11440093
-0.11444447
-0.091458853
-0.093136412
-0.094682529
-0.096107503
-0.097420825
-0.098631245
-0.099746826
-0.100775
-0.10172261
-0.10259598
-0.10340091
-0.10414278
-0.10482653
-0.1054567
-0.1060375
-0.10657279
-0.10706614
-0.10752084
-0.10793992
-0.10832616
-0.10868214
-0.10901023
-0.10931262
-0.10959131
-0.10984817
-0.11008491
-0.1103031
-0.1105042
-0.11068954
-0.11086036
-0.11101779
-0.1111629
-0.11129663
-0.11141989
-0.11153349
-0.11163819
-0.11173469
-0.11182363
-0.1119056
-0.11198115
-0.11205078
-0.11211496
-0.1121741
-0.11222862
-0.11227886
-0.11232517
-0.088060278
-0.089805857
-0.091414668
-0.092897428
-0.094264013
-0.095523527
-0.096684358
-0.097754239
-0.098740297
-0.099649098
-0.1004867
-0.10125867
-0.10197017
-0.10262592
-0.10323029
-0.10378731
-0.1043007
-0.10477386
-0.10520995
-0.10561188
-0.10598232
-0.10632373
-0.1066384
-0.10692842
-0.10719571
-0.10744207
-0.10766912
-0.10787839
-0.10807126
-0.10824902
-0.10841285
-0.10856385
-0.10870302
-0.10883129
-0.10894951
-0.10905846
-0.10915889
-0.10925144
-0.10933674
-0.10941536
-0.10948782
-0.10955461
-0.10961616
-0.10967289
-0.10972517
-0.10977336
-0.084626356
-0.086404079
-0.088042527
-0.089552612
-0.090944391
-0.092227133
-0.09340938
-0.094499006
-0.095503267
-0.09642885
-0.097281921
-0.09806816
-0.098792803
-0.099460676
-0.10007623
-0.10064355
-0.10116643
-0.10164835
-0.10209251
-0.10250188
-0.10287917
-0.10322691
-0.1035474
-0.10384279
-0.10411504
-0.10436596
-0.10459722
-0.10481036
-0.1050068
-0.10518786
-0.10535473
-0.10550853
-0.10565028
-0.10578092
-0.10590133
-0.10601231
-0.10611459
-0.10620886
-0.10629575
-0.10637582
-0.10644963
-0.10651765
-0.10658034
-0.10663813
-0.10669138
-0.10674047
-0.081157581
-0.082928678
-0.084561042
-0.086065537
-0.087452179
-0.088730199
-0.089908105
-0.090993739
-0.091994329
-0.092916536
-0.093766499
-0.094549879
-0.095271891
-0.095937342
-0.096550663
-0.097115936
-0.097636928
-0.098117105
-0.098559666
-0.098967556
-0.099343493
-0.099689979
-0.10000932
-0.10030365
-0.10057492
-0.10082493
-0.10105536
-0.10126774
-0.10146348
-0.10164389
-0.10181016
-0.10196341
-0.10210465
-0.10223483
-0.10235481
-0.10246539
-0.1025673
-0.10266124
-0.10274781
-0.1028276
-0.10290114
-0.10296892
-0.10303139
-0.10308897
-0.10314203
-0.10319094
-0.077655309
-0.079379805
-0.080969248
-0.082434211
-0.083784437
-0.08502891
-0.08617591
-0.087233069
-0.088207423
-0.089105457
-0.089933147
-0.090696003
-0.091399102
-0.092047126
-0.092644386
-0.093194861
-0.093702214
-0.094169823
-0.094600801
-0.094998018
-0.095364118
-0.095701539
-0.096012527
-0.096299152
-0.096563324
-0.096806801
-0.097031205
-0.097238029
-0.09742865
-0.097604339
-0.097766264
-0.097915503
-0.098053052
-0.098179825
-0.098296666
-0.098404355
-0.098503607
-0.098595083
-0.098679393
-0.098757099
-0.098828717
-0.098894724
-0.09895556
-0.09901163
-0.099063308
-0.099110937
-0.074122137
-0.075761206
-0.077271951
-0.078664407
-0.079947828
-0.081130744
-0.082221023
-0.083225914
-0.084152102
-0.085005749
-0.085792534
-0.086517694
-0.087186054
-0.087802061
-0.088369816
-0.088893098
-0.089375391
-0.089819903
-0.090229596
-0.090607195
-0.090955215
-0.091275972
-0.091571602
-0.091844074
-0.092095201
-0.092326656
-0.092539979
-0.09273659
-0.0929178
-0.093084813
-0.093238743
-0.093380615
-0.093511372
-0.093631886
-0.093742959
-0.09384533
-0.093939682
-0.094026642
-0.09410679
-0.094180659
-0.094248741
-0.094311489
-0.094369322
-0.094422624
-0.094471751
-0.094517029
-0.070562222
-0.072081067
-0.073481037
-0.074771418
-0.075960777
-0.077057013
-0.078067411
-0.078998685
-0.07985703
-0.080648152
-0.081377315
-0.082049368
-0.082668783
-0.083239682
-0.083765864
-0.084250831
-0.08469781
-0.085109777
-0.085489473
-0.085839427
-0.086161968
-0.086459242
-0.08673323
-0.086985754
-0.087218497
-0.087433007
-0.087630713
-0.087812932
-0.087980876
-0.088135664
-0.088278325
-0.088409811
-0.088530997
-0.088642689
-0.088745631
-0.088840508
-0.088927954
-0.089008548
-0.089082829
-0.089151291
-0.089214389
-0.089272545
-0.089326144
-0.089375544
-0.089421075
-0.089463038
-0.06698143
-0.068352333
-0.069615969
-0.070780709
-0.071854276
-0.072843798
-0.073755845
-0.074596477
-0.075371282
-0.076085411
-0.076743612
-0.077350264
-0.077909403
-0.078424748
-0.078899728
-0.079337505
-0.079740991
-0.080112872
-0.080455623
-0.080771526
-0.081062683
-0.081331033
-0.081578362
-0.081806317
-0.082016414
-0.082210053
-0.082388524
-0.082553013
-0.082704617
-0.082844344
-0.082973126
-0.083091819
-0.083201214
-0.083302039
-0.083394965
-0.083480612
-0.083559549
-0.083632303
-0.083699357
-0.083761158
-0.083818117
-0.083870614
-0.083918999
-0.083963593
-0.084004694
-0.084042575
-0.063387205
-0.064592281
-0.065703078
-0.06672695
-0.067670684
-0.068540541
-0.069342297
-0.070081277
-0.070762392
-0.071390169
-0.071968783
-0.072502082
-0.072993613
-0.073446646
-0.073864196
-0.074249041
-0.074603742
-0.074930659
-0.075231969
-0.075509676
-0.075765631
-0.076001535
-0.07621896
-0.076419354
-0.076604049
-0.076774276
-0.076931168
-0.07707577
-0.077209044
-0.077331878
-0.077445089
-0.077549432
-0.0776456
-0.077734235
-0.077815926
-0.077891218
-0.077960611
-0.078024569
-0.078083515
-0.078137844
-0.078187917
-0.078234067
-0.078276602
-0.078315805
-0.078351936
-0.078385237
-0.059788132
-0.06082124
-0.061773523
-0.062651286
-0.063460346
-0.064206073
-0.064893416
-0.065526941
-0.066110859
-0.066649051
-0.067145095
-0.06760229
-0.068023678
-0.068412063
-0.068770027
-0.069099953
-0.069404037
-0.069684302
-0.069942614
-0.070180692
-0.070400121
-0.070602362
-0.07078876
-0.070960556
-0.071118895
-0.07126483
-0.071399333
-0.0715233
-0.071637556
-0.071742861
-0.071839916
-0.071929369
-0.072011814
-0.0720878
-0.072157834
-0.072222381
-0.072281872
-0.072336702
-0.072387237
-0.072433813
-0.072476741
-0.072516305
-0.07255277
-0.072586378
-0.072617354
-0.072645902
-0.056193229
-0.05706066
-0.057860218
-0.0585972
-0.059276493
-0.059902607
-0.060479699
-0.061011604
-0.061501857
-0.061953718
-0.062370191
-0.062754046
-0.063107838
-0.063433919
-0.06373446
-0.06401146
-0.064266764
-0.064502069
-0.064718943
-0.064918829
-0.065103057
-0.065272853
-0.065429349
-0.065573586
-0.065706524
-0.065829048
-0.065941974
-0.066046054
-0.06614198
-0.066230392
-0.066311878
-0.06638698
-0.066456199
-0.066519995
-0.066578794
-0.066632986
-0.066682933
-0.066728968
-0.066771396
-0.0668105
-0.06684654
-0.066879758
-0.066910373
-0.066938589
-0.066964596
-0.066988565
-0.052611147
-0.053330916
-0.053994351
-0.054605853
-0.055169481
-0.055688979
-0.056167799
-0.056609123
-0.057015886
-0.057390793
-0.057736337
-0.058054818
-0.058348354
-0.058618899
-0.058868253
-0.059098075
-0.059309895
-0.059505123
-0.059685058
-0.059850898
-0.060003748
-0.060144624
-0.060274465
-0.060394134
-0.060504429
-0.060606084
-0.060699775
-0.060786127
-0.060865715
-0.060939067
-0.061006674
-0.061068984
-0.061126413
-0.061179343
-0.061228126
-0.061273088
-0.061314528
-0.061352721
-0.061387922
-0.061420365
-0.061450267
-0.061477827
-0.061503227
-0.061526638
-0.061548214
-0.0615681
-0.049049454
-0.049649363
-0.050202305
-0.050711953
-0.051181692
-0.051614647
-0.052013696
-0.052381492
-0.052720483
-0.053032923
-0.053320891
-0.053586304
-0.053830927
-0.05405639
-0.054264192
-0.054455716
-0.054632238
-0.054794933
-0.054944883
-0.055083086
-0.055210464
-0.055327863
-0.055436065
-0.055535792
-0.055627706
-0.055712419
-0.055790497
-0.055862458
-0.055928782
-0.05598991
-0.056046249
-0.056098175
-0.056146033
-0.056190142
-0.056230795
-0.056268264
-0.056302797
-0.056334625
-0.056363959
-0.056390996
-0.056415914
-0.056438881
-0.056460048
-0.056479557
-0.056497537
-0.056514109
-0.045514168
-0.046029053
-0.046503615
-0.04694101
-0.047344149
-0.047715713
-0.048058174
-0.048373811
-0.048664725
-0.048932852
-0.049179977
-0.049407743
-0.049617669
-0.04981115
-0.049989474
-0.05015383
-0.050305311
-0.050444926
-0.050573603
-0.050692201
-0.050801508
-0.050902252
-0.050995104
-0.051080682
-0.051159556
-0.051232251
-0.051299252
-0.051361003
-0.051417918
-0.051470373
-0.051518719
-0.051563278
-0.051604346
-0.051642197
-0.051677082
-0.051709235
-0.051738868
-0.051766181
-0.051791353
-0.051814554
-0.051835937
-0.051855645
-0.051873809
-0.05189055
-0.051905979
-0.0519202
-0.042009609
-0.042478286
-0.042910251
-0.043308379
-0.04367532
-0.044013516
-0.04432522
-0.044612507
-0.044877288
-0.045121328
-0.04534625
-0.045553552
-0.045744615
-0.04592071
-0.04608301
-0.046232596
-0.046370464
-0.046497531
-0.046614644
-0.046722582
-0.046822065
-0.046913754
-0.04699826
-0.047076146
-0.04714793
-0.047214091
-0.047275069
-0.04733127
-0.047383068
-0.047430808
-0.047474808
-0.047515361
-0.047552737
-0.047587186
-0.047618935
-0.047648197
-0.047675167
-0.047700024
-0.047722934
-0.047744048
-0.047763509
-0.047781445
-0.047797976
-0.047813212
-0.047827255
-0.047840197
-0.038538516
-0.039000924
-0.039427104
-0.039819896
-0.040181915
-0.040515572
-0.040823089
-0.041106515
-0.041367735
-0.041608491
-0.041830385
-0.042034896
-0.042223384
-0.042397106
-0.042557218
-0.042704787
-0.042840795
-0.042966147
-0.043081679
-0.04318816
-0.0432863
-0.04337675
-0.043460115
-0.043536949
-0.043607763
-0.04367303
-0.043733184
-0.043788625
-0.043839723
-0.043886818
-0.043930223
-0.043970228
-0.044007098
-0.044041081
-0.044072401
-0.044101267
-0.044127872
-0.044152393
-0.044174993
-0.044195822
-0.044215019
-0.044232713
-0.04424902
-0.04426405
-0.044277902
-0.04429067
-0.035102362
-0.035597213
-0.036053292
-0.036473637
-0.036861048
-0.037218106
-0.037547188
-0.037850487
-0.038130022
-0.038387657
-0.038625107
-0.038843953
-0.039045653
-0.03923155
-0.039402883
-0.039560793
-0.039706331
-0.039840467
-0.039964094
-0.040078036
-0.040183051
-0.040279838
-0.040369043
-0.040451259
-0.040527034
-0.040596873
-0.04066124
-0.040720564
-0.040775241
-0.040825634
-0.040872079
-0.040914886
-0.040954339
-0.040990701
-0.041024215
-0.041055103
-0.041083571
-0.041109809
-0.041133991
-0.041156279
-0.041176821
-0.041195753
-0.041213203
-0.041229285
-0.041244107
-0.041257769
-0.03170172
-0.03226483
-0.032783819
-0.033262143
-0.033702988
-0.034109293
-0.034483762
-0.034828891
-0.035146978
-0.035440143
-0.035710338
-0.035959363
-0.036188877
-0.036400408
-0.036595366
-0.036775049
-0.036940654
-0.037093284
-0.037233956
-0.037363606
-0.037483099
-0.03759323
-0.037694733
-0.037788283
-0.037874504
-0.037953969
-0.03802721
-0.038094712
-0.038156925
-0.038214265
-0.038267112
-0.038315819
-0.03836071
-0.038402085
-0.038440218
-0.038475363
-0.038507755
-0.038537609
-0.038565125
-0.038590484
-0.038613857
-0.038635399
-0.038655254
-0.038673553
-0.038690418
-0.038705962
-0.028336628
-0.028999903
-0.029611208
-0.030174616
-0.030693879
-0.031172457
-0.031613536
-0.032020055
-0.032394721
-0.032740032
-0.033058286
-0.033351605
-0.033621941
-0.033871095
-0.034100728
-0.034312369
-0.034507427
-0.034687203
-0.034852893
-0.035005601
-0.035146344
-0.03527606
-0.035395614
-0.0355058
-0.035607353
-0.03570095
-0.035787214
-0.03586672
-0.035939996
-0.036007531
-0.036069776
-0.036127143
-0.036180017
-0.036228748
-0.036273661
-0.036315055
-0.036353207
-0.036388369
-0.036420777
-0.036450645
-0.036478174
-0.036503546
-0.03652693
-0.036548483
-0.036568347
-0.036586654
-0.025006871
-0.02579786
-0.026526875
-0.02719877
-0.027818021
-0.028388752
-0.028914765
-0.029399563
-0.029846376
-0.03025818
-0.030637718
-0.030987517
-0.031309909
-0.03160704
-0.03188089
-0.032133283
-0.0323659
-0.032580291
-0.032777884
-0.032959996
-0.033127838
-0.03328253
-0.033425102
-0.033556503
-0.033677609
-0.033789226
-0.033892098
-0.03398691
-0.034074294
-0.034154831
-0.034229058
-0.03429747
-0.034360522
-0.034418634
-0.034472194
-0.034521557
-0.034567053
-0.034608984
-0.03464763
-0.034683249
-0.034716077
-0.034746333
-0.034774218
-0.03479992
-0.034823607
-0.034845439
-0.021712194
-0.022654057
-0.023522126
-0.024322183
-0.025059555
-0.025739155
-0.026365506
-0.026942783
-0.027474829
-0.027965188
-0.028417126
-0.028833654
-0.029217545
-0.029571358
-0.029897448
-0.030197988
-0.030474979
-0.030730268
-0.030965553
-0.031182404
-0.031382263
-0.031566463
-0.03173623
-0.031892696
-0.032036903
-0.03216981
-0.032292304
-0.032405201
-0.032509252
-0.032605151
-0.032693536
-0.032774996
-0.032850074
-0.03291927
-0.032983044
-0.033041822
-0.033095995
-0.033145923
-0.03319194
-0.033234352
-0.03327344
-0.033309467
-0.033342671
-0.033373273
-0.033401478
-0.033427473
-0.018452427
-0.019564176
-0.020588824
-0.021533194
-0.022403574
-0.023205762
-0.0239451
-0.02462651
-0.025254533
-0.02583335
-0.026366816
-0.026858484
-0.027311629
-0.02772927
-0.028114187
-0.028468945
-0.028795907
-0.02909725
-0.029374982
-0.029630953
-0.029866868
-0.030084298
-0.030284691
-0.030469383
-0.030639604
-0.030796488
-0.03094108
-0.031074342
-0.031197163
-0.031310361
-0.03141469
-0.031510844
-0.031599465
-0.031681142
-0.03175642
-0.0318258
-0.031889744
-0.031948678
-0.032002995
-0.032053056
-0.032099195
-0.03214172
-0.032180912
-0.032217034
-0.032250326
-0.03228101
-0.015227554
-0.016524453
-0.017719747
-0.018821396
-0.019836735
-0.020772525
-0.021635
-0.022429902
-0.023162526
-0.023837749
-0.02446007
-0.025033632
-0.025562256
-0.026049462
-0.026498495
-0.026912345
-0.02729377
-0.027645309
-0.027969305
-0.028267914
-0.028543127
-0.028796775
-0.02903055
-0.029246008
-0.029444583
-0.0296276
-0.029796277
-0.029951737
-0.030095017
-0.03022707
-0.030348777
-0.030460947
-0.030564329
-0.030659611
-0.030747427
-0.030828363
-0.030902957
-0.030971707
-0.031035071
-0.03109347
-0.031147293
-0.0311969
-0.03124262
-0.031284758
-0.031323594
-0.031359388
-0.012037739
-0.013531766
-0.014908745
-0.016177847
-0.017347521
-0.018425558
-0.019419136
-0.020334871
-0.021178863
-0.02195673
-0.022673655
-0.02333441
-0.023943396
-0.024504669
-0.025021967
-0.025498735
-0.025938149
-0.026343134
-0.026716388
-0.027060397
-0.027377452
-0.027669666
-0.027938984
-0.0281872
-0.028415967
-0.02862681
-0.028821133
-0.02900023
-0.029165294
-0.029317424
-0.029457635
-0.02958686
-0.029705959
-0.029815727
-0.029916895
-0.030010135
-0.03009607
-0.030175272
-0.030248269
-0.030315546
-0.030377552
-0.0304347
-0.03048737
-0.030535914
-0.030580654
-0.030621889
-0.0088833204
-0.010583638
-0.012150748
-0.013595086
-0.014926271
-0.016153165
-0.01728394
-0.018326126
-0.019286662
-0.020171945
-0.020987871
-0.021739872
-0.022432957
-0.023071741
-0.023660479
-0.02420309
-0.024703189
-0.025164105
-0.02558891
-0.025980431
-0.026341276
-0.026673849
-0.026980364
-0.027262864
-0.027523229
-0.027763194
-0.027984357
-0.028188191
-0.028376054
-0.028549198
-0.028708775
-0.028855849
-0.028991399
-0.029116328
-0.029231469
-0.029337588
-0.029435392
-0.029525533
-0.029608612
-0.029685181
-0.02975575
-0.029820791
-0.029880735
-0.029935983
-0.029986902
-0.030033832
-0.005764791
-0.0076781936
-0.0094416963
-0.011067042
-0.012565055
-0.013945709
-0.015218199
-0.016390999
-0.017471917
-0.018468153
-0.01938634
-0.020232592
-0.021012545
-0.021731392
-0.022393921
-0.023004544
-0.023567327
-0.024086018
-0.024564071
-0.025004669
-0.025410747
-0.02578501
-0.026129949
-0.026447863
-0.026740868
-0.027010916
-0.027259805
-0.027489193
-0.027700608
-0.027895459
-0.028075042
-0.028240555
-0.028393099
-0.028533691
-0.028663266
-0.02878269
-0.028892756
-0.028994198
-0.029087691
-0.029173859
-0.029253276
-0.02932647
-0.02939393
-0.029456103
-0.029513406
-0.029566218
-0.0026827704
-0.0048140814
-0.006778422
-0.0085888728
-0.01025749
-0.011795384
-0.013212796
-0.014519165
-0.01572319
-0.016832888
-0.01785565
-0.018798285
-0.019667071
-0.020467794
-0.021205784
-0.021885958
-0.022512843
-0.023090615
-0.023623122
-0.024113908
-0.024566244
-0.02498314
-0.025367374
-0.025721503
-0.026047888
-0.0263487
-0.026625944
-0.026881466
-0.027116968
-0.027334018
-0.027534062
-0.027718432
-0.027888356
-0.028044967
-0.028189306
-0.028322336
-0.028444943
-0.028557943
-0.028662089
-0.028758075
-0.02884654
-0.028928074
-0.029003219
-0.029072476
-0.029136307
-0.029195137
-0.12168614
-0.12097553