/*--------------------------------*- C++ -*----------------------------------*\
| =========                 |                                                 |
| \\      /  F ield         | OpenFOAM: The Open Source CFD Toolbox           |
|  \\    /   O peration     | Version:  v2006                                 |
|   \\  /    A nd           | Website:  www.openfoam.com                      |
|    \\/     M anipulation  |                                                 |
\*---------------------------------------------------------------------------*/
FoamFile
{
    version     2.0;
    format      ascii;
    class       volScalarField;
    location    "6000";
    object      k;
}
// * * * * * * * * * * * * * * * * * * * * * * * * * * * * * * * * * * * * * //

dimensions      [0 2 -2 0 0 0 0];


internalField   nonuniform List<scalar> 
21256
(
6.2305113e-09
1.0914061e-08
1.9006855e-08
2.2928915e-08
2.3947763e-08
2.3933412e-08
2.3782264e-08
2.3708162e-08
2.3692356e-08
2.3694711e-08
2.3698286e-08
2.3700149e-08
2.3700862e-08
2.3701112e-08
2.3702295e-08
2.3703883e-08
2.3705061e-08
2.3704726e-08
2.3703796e-08
2.3701819e-08
2.3699722e-08
2.369821e-08
2.369711e-08
2.3696046e-08
2.3694134e-08
2.3691728e-08
2.3689563e-08
2.368766e-08
2.3685865e-08
2.368396e-08
2.3681767e-08
2.3679013e-08
2.3675401e-08
2.3671724e-08
2.3668924e-08
2.3666247e-08
7.7319574e-09
1.4309397e-08
2.2309159e-08
2.5476496e-08
2.6058211e-08
2.5941342e-08
2.5810596e-08
2.5763103e-08
2.5756835e-08
2.5759617e-08
2.5761581e-08
2.5762098e-08
2.576166e-08
2.5760793e-08
2.5761538e-08
2.5762689e-08
2.5763204e-08
2.5761789e-08
2.5760134e-08
2.5757233e-08
2.5754166e-08
2.5751818e-08
2.5749923e-08
2.5748214e-08
2.574557e-08
2.5742217e-08
2.5739131e-08
2.5736292e-08
2.5733551e-08
2.5730689e-08
2.572754e-08
2.5723827e-08
2.5718913e-08
2.5713433e-08
2.5708855e-08
2.5704017e-08
1.0091411e-08
1.8302331e-08
2.5796066e-08
2.8192151e-08
2.8452328e-08
2.8297299e-08
2.8198448e-08
2.817163e-08
2.8170289e-08
2.8172006e-08
2.8172443e-08
2.8171434e-08
2.816967e-08
2.8167676e-08
2.816799e-08
2.8168786e-08
2.8168451e-08
2.8165682e-08
2.816348e-08
2.8159477e-08
2.8155542e-08
2.8152261e-08
2.8149611e-08
2.814732e-08
2.8144029e-08
2.8139718e-08
2.8135725e-08
2.813199e-08
2.8128362e-08
2.8124585e-08
2.812053e-08
2.8116012e-08
2.8110002e-08
2.8102736e-08
2.8096545e-08
2.8089615e-08
1.3388194e-08
2.297937e-08
2.9571625e-08
3.1222328e-08
3.12588e-08
3.1108893e-08
3.1044493e-08
3.1031716e-08
3.1031275e-08
3.1031201e-08
3.1030018e-08
3.1027449e-08
3.10245e-08
3.1021441e-08
3.1021246e-08
3.1021942e-08
3.1020414e-08
3.1016198e-08
3.1013507e-08
3.100836e-08
3.1003633e-08
3.0999481e-08
3.0996018e-08
3.0993401e-08
3.0989554e-08
3.0984401e-08
3.0979553e-08
3.097505e-08
3.0970695e-08
3.0966151e-08
3.0961303e-08
3.0956227e-08
3.094953e-08
3.0940568e-08
3.0933049e-08
3.0924239e-08
1.7995625e-08
2.8380653e-08
3.3708175e-08
3.4711267e-08
3.4627726e-08
3.4512435e-08
3.4476951e-08
3.4471194e-08
3.4468732e-08
3.4466839e-08
3.4464089e-08
3.4459963e-08
3.4455678e-08
3.4451595e-08
3.4450898e-08
3.4451674e-08
3.4448981e-08
3.4442888e-08
3.4439945e-08
3.4433578e-08
3.4428433e-08
3.4423477e-08
3.4419216e-08
3.4416654e-08
3.4412561e-08
3.4406783e-08
3.4401315e-08
3.4396259e-08
3.4391534e-08
3.4386643e-08
3.4381253e-08
3.4376042e-08
3.4369419e-08
3.4359123e-08
3.4350853e-08
3.4340704e-08
2.4257941e-08
3.4557776e-08
3.8392421e-08
3.8881986e-08
3.8764668e-08
3.8693985e-08
3.8677157e-08
3.8672373e-08
3.8666901e-08
3.8663957e-08
3.865951e-08
3.8653595e-08
3.8647986e-08
3.8642939e-08
3.8641878e-08
3.8643116e-08
3.8639292e-08
3.8630639e-08
3.8627931e-08
3.8620376e-08
3.8615578e-08
3.8609891e-08
3.8605027e-08
3.8602914e-08
3.8599328e-08
3.8593303e-08
3.8587764e-08
3.8582515e-08
3.8577969e-08
3.8573642e-08
3.8568226e-08
3.8563515e-08
3.8558188e-08
3.8547456e-08
3.8539369e-08
3.8528945e-08
3.2674773e-08
4.1602236e-08
4.3927746e-08
4.4041395e-08
4.3947192e-08
4.3913734e-08
4.3904584e-08
4.3897106e-08
4.3889185e-08
4.3886007e-08
4.387954e-08
4.38718e-08
4.3865043e-08
4.3859211e-08
4.3857917e-08
4.3860622e-08
4.3855526e-08
4.3843394e-08
4.3842038e-08
4.3833729e-08
4.3830246e-08
4.3824068e-08
4.3818996e-08
4.3817773e-08
4.3816084e-08
4.3810463e-08
4.3805857e-08
4.3801102e-08
4.3797416e-08
4.3795096e-08
4.3790825e-08
4.3787567e-08
4.3785118e-08
4.3775974e-08
4.3769464e-08
4.3760624e-08
4.3361798e-08
4.9656273e-08
5.0633141e-08
5.0592748e-08
5.0545187e-08
5.0530577e-08
5.0521426e-08
5.0511481e-08
5.0502273e-08
5.0499873e-08
5.0491404e-08
5.0482366e-08
5.0475162e-08
5.0469153e-08
5.0467486e-08
5.0473869e-08
5.0466966e-08
5.0451683e-08
5.045155e-08
5.0444788e-08
5.0443704e-08
5.043804e-08
5.0433524e-08
5.043371e-08
5.0435529e-08
5.0431555e-08
5.0429438e-08
5.0426317e-08
5.0425061e-08
5.0424732e-08
5.0424169e-08
5.042406e-08
5.042512e-08
5.0421738e-08
5.0418923e-08
5.0414379e-08
5.6054162e-08
5.892279e-08
5.9034858e-08
5.8992974e-08
5.8978071e-08
5.8969521e-08
5.8960341e-08
5.8951413e-08
5.894329e-08
5.8941895e-08
5.8933193e-08
5.8925294e-08
5.891965e-08
5.8915041e-08
5.8912929e-08
5.8922401e-08
5.8914026e-08
5.8901941e-08
5.8902664e-08
5.8900474e-08
5.8902004e-08
5.8899403e-08
5.8897624e-08
5.8898894e-08
5.8904364e-08
5.8904655e-08
5.8906968e-08
5.8907517e-08
5.891065e-08
5.891454e-08
5.8919366e-08
5.8922183e-08
5.8929788e-08
5.893354e-08
5.8937402e-08
5.8940926e-08
1.4255411e-08
1.4256304e-08
1.4257428e-08
1.425958e-08
1.4261707e-08
1.4263905e-08
1.4265966e-08
1.4267774e-08
1.4269345e-08
1.4270787e-08
1.4272201e-08
1.4273663e-08
1.4275098e-08
1.4276293e-08
1.4277158e-08
1.4277932e-08
1.4278784e-08
1.4279561e-08
1.4279823e-08
1.4279407e-08
1.4278559e-08
1.4277549e-08
1.4275967e-08
1.4272874e-08
1.4269809e-08
1.4277792e-08
1.4320487e-08
1.4412664e-08
1.4494216e-08
1.4333514e-08
1.3475385e-08
1.1364546e-08
7.8202345e-09
3.9832485e-09
2.8870764e-09
1.4845453e-08
1.4753e-08
1.4754257e-08
1.4756119e-08
1.4758241e-08
1.4760501e-08
1.4762755e-08
1.4764819e-08
1.4766607e-08
1.4768162e-08
1.4769605e-08
1.4771044e-08
1.4772547e-08
1.4774015e-08
1.4775208e-08
1.4776068e-08
1.4776864e-08
1.4777754e-08
1.4778557e-08
1.4778806e-08
1.4778347e-08
1.4777425e-08
1.4776281e-08
1.4774563e-08
1.4771687e-08
1.4769453e-08
1.4777639e-08
1.4816913e-08
1.4902181e-08
1.4986505e-08
1.4868032e-08
1.4115934e-08
1.2144547e-08
8.6341851e-09
4.5175852e-09
2.7016899e-09
1.1399807e-08
1.5327956e-08
1.5329596e-08
1.533173e-08
1.5333969e-08
1.5336355e-08
1.5338706e-08
1.5340815e-08
1.5342616e-08
1.5344179e-08
1.5345634e-08
1.5347101e-08
1.5348644e-08
1.5350148e-08
1.5351344e-08
1.53522e-08
1.5353017e-08
1.5353956e-08
1.5354823e-08
1.5355119e-08
1.5354657e-08
1.5353701e-08
1.5352605e-08
1.5351137e-08
1.5348472e-08
1.5345072e-08
1.5348034e-08
1.5376768e-08
1.5454013e-08
1.5558614e-08
1.5530331e-08
1.4966008e-08
1.3226423e-08
9.7818976e-09
5.2580173e-09
2.693778e-09
9.071494e-09
1.5995454e-08
1.5997453e-08
1.5999765e-08
1.6002133e-08
1.6004641e-08
1.6007064e-08
1.6009182e-08
1.6010964e-08
1.6012507e-08
1.6013955e-08
1.6015437e-08
1.6017015e-08
1.6018542e-08
1.601972e-08
1.6020556e-08
1.602139e-08
1.6022383e-08
1.602331e-08
1.6023643e-08
1.6023173e-08
1.6022161e-08
1.6021035e-08
1.6019697e-08
1.6017385e-08
1.6013928e-08
1.6014091e-08
1.6034138e-08
1.6099246e-08
1.6207731e-08
1.624148e-08
1.5841496e-08
1.4350263e-08
1.1054256e-08
6.2164074e-09
2.9155588e-09
7.3870858e-09
1.677748e-08
1.6779775e-08
1.6782228e-08
1.6784734e-08
1.6787364e-08
1.6789841e-08
1.679194e-08
1.6793677e-08
1.6795178e-08
1.6796601e-08
1.6798083e-08
1.6799686e-08
1.6801221e-08
1.6802357e-08
1.6803157e-08
1.6804006e-08
1.6805057e-08
1.6806054e-08
1.6806432e-08
1.6805964e-08
1.6804896e-08
1.6803739e-08
1.6802525e-08
1.6800559e-08
1.6797168e-08
1.6795043e-08
1.680697e-08
1.685853e-08
1.6964227e-08
1.7048172e-08
1.6806297e-08
1.5586898e-08
1.2516796e-08
7.4466674e-09
3.297998e-09
6.2347147e-09
1.7702862e-08
1.7705399e-08
1.7707989e-08
1.7710633e-08
1.7713377e-08
1.7715868e-08
1.77179e-08
1.7719549e-08
1.772097e-08
1.7722331e-08
1.7723787e-08
1.7725392e-08
1.7726904e-08
1.7727957e-08
1.7728699e-08
1.7729551e-08
1.7730663e-08
1.7731735e-08
1.773216e-08
1.7731706e-08
1.773058e-08
1.7729372e-08
1.7728257e-08
1.772666e-08
1.7723671e-08
1.772031e-08
1.772552e-08
1.7762553e-08
1.7856927e-08
1.7972336e-08
1.7869909e-08
1.6934369e-08
1.4172163e-08
8.9501157e-09
3.8109147e-09
5.4916841e-09
1.8810786e-08
1.8813547e-08
1.8816258e-08
1.8819037e-08
1.8821872e-08
1.8824314e-08
1.882621e-08
1.8827711e-08
1.8828992e-08
1.8830242e-08
1.8831625e-08
1.8833195e-08
1.8834629e-08
1.8835543e-08
1.8836191e-08
1.8837035e-08
1.8838205e-08
1.8839362e-08
1.8839832e-08
1.8839421e-08
1.8838238e-08
1.8836975e-08
1.8835938e-08
1.8834709e-08
1.88323e-08
1.8828582e-08
1.8828847e-08
1.8851983e-08
1.8928905e-08
1.9057278e-08
1.9069322e-08
1.8418497e-08
1.6041618e-08
1.0849151e-08
4.6581682e-09
5.1070808e-09
2.0154986e-08
2.0157978e-08
2.0160776e-08
2.0163687e-08
2.0166572e-08
2.0168875e-08
2.0170542e-08
2.0171813e-08
2.0172875e-08
2.0173949e-08
2.0175192e-08
2.0176675e-08
2.0177945e-08
2.0178643e-08
2.017915e-08
2.0179966e-08
2.018119e-08
2.0182444e-08
2.0182948e-08
2.0182634e-08
2.0181398e-08
2.018008e-08
2.0179103e-08
2.0178261e-08
2.0176543e-08
2.017322e-08
2.0170573e-08
2.0181779e-08
2.0237401e-08
2.0360812e-08
2.0455558e-08
2.0068991e-08
1.8137087e-08
1.3189926e-08
5.9512403e-09
5.0357437e-09
2.1808449e-08
2.1811673e-08
2.181451e-08
2.1817565e-08
2.1820452e-08
2.1822512e-08
2.1823868e-08
2.1824837e-08
2.1825619e-08
2.1826462e-08
2.1827519e-08
2.1828867e-08
2.1829894e-08
2.1830296e-08
2.183063e-08
2.1831409e-08
2.1832704e-08
2.183408e-08
2.1834608e-08
2.1834484e-08
2.1833208e-08
2.1831827e-08
2.1830872e-08
2.1830458e-08
2.1829448e-08
2.1827036e-08
2.1823396e-08
2.1825926e-08
2.1859528e-08
2.1962407e-08
2.2104561e-08
2.1949022e-08
2.0488568e-08
1.6021738e-08
8.2308607e-09
5.3270994e-09
1.8634889e-08
2.23374e-08
2.6687747e-08
3.1686278e-08
3.7443263e-08
4.406739e-08
5.1690447e-08
6.0410732e-08
7.0389678e-08
8.1652877e-08
9.4448281e-08
1.0902519e-07
1.2556379e-07
1.4416551e-07
1.6484833e-07
1.8752113e-07
2.1194534e-07
2.3767845e-07
2.6401631e-07
2.8992345e-07
3.1400283e-07
3.3442039e-07
3.4910891e-07
3.5580447e-07
3.5288537e-07
3.3923234e-07
3.1347838e-07
2.7579482e-07
2.2642104e-07
1.6591767e-07
1.0575557e-07
4.9909706e-08
9.8213063e-09
8.8926854e-09
2.4593555e-08
7.5229563e-08
1.7594843e-07
3.2773321e-07
5.2102879e-07
7.4066684e-07
9.743644e-07
1.2223224e-06
1.4839954e-06
1.7704688e-06
2.0378513e-06
2.3393296e-06
3.4937561e-09
4.1917949e-09
4.9993627e-09
5.9785797e-09
7.1421404e-09
8.497905e-09
1.006117e-08
1.183716e-08
1.3845951e-08
1.6090009e-08
1.8583163e-08
2.1354633e-08
2.4440419e-08
2.7874464e-08
3.1680797e-08
3.5868092e-08
4.0422392e-08
4.5299187e-08
5.041315e-08
5.5625571e-08
6.0736924e-08
6.546743e-08
6.9481161e-08
7.2295224e-08
7.325579e-08
7.1953419e-08
6.8295452e-08
6.2366616e-08
5.4549278e-08
4.5290207e-08
3.5105554e-08
2.6616555e-08
1.7161487e-08
1.0743276e-08
7.0722615e-09
8.8714366e-09
1.5038951e-08
2.6364621e-08
4.2815591e-08
6.3851083e-08
8.8286672e-08
1.1536562e-07
1.4471141e-07
1.77173e-07
2.1039474e-07
2.4630029e-07
3.5320842e-09
3.3907469e-09
3.3082821e-09
3.2131712e-09
3.1558262e-09
3.1365281e-09
3.1711214e-09
3.2719239e-09
3.4643521e-09
3.7675132e-09
4.1942909e-09
4.7554471e-09
5.4607852e-09
6.3189645e-09
7.3365586e-09
8.5175616e-09
9.8625957e-09
1.1367833e-08
1.30233e-08
1.4810521e-08
1.6699944e-08
1.8647193e-08
2.0592377e-08
2.2454151e-08
2.4120157e-08
2.5475628e-08
2.6374463e-08
2.6671875e-08
2.6319357e-08
2.534582e-08
2.3820892e-08
2.1864368e-08
1.973645e-08
1.7452832e-08
1.5183438e-08
1.3316152e-08
1.2083206e-08
1.13751e-08
1.172908e-08
1.2693827e-08
1.4243948e-08
1.6282491e-08
1.8791194e-08
2.1747906e-08
2.5037784e-08
2.8758893e-08
6.490426e-09
5.4942002e-09
4.6983094e-09
4.111035e-09
3.6924864e-09
3.4240565e-09
3.2616862e-09
3.1657482e-09
3.0967545e-09
3.0228878e-09
2.9661571e-09
2.9338244e-09
2.9308642e-09
2.9710586e-09
3.0682803e-09
3.2350145e-09
3.4820217e-09
3.8179944e-09
4.2498211e-09
4.7817434e-09
5.4143036e-09
6.1435034e-09
6.9604616e-09
7.8490561e-09
8.7908163e-09
9.7392342e-09
1.0689789e-08
1.1618342e-08
1.2470778e-08
1.3197182e-08
1.3767072e-08
1.4136846e-08
1.4334847e-08
1.4376921e-08
1.4197088e-08
1.3850192e-08
1.350214e-08
1.3177499e-08
1.2868598e-08
1.2609125e-08
1.249702e-08
1.2397999e-08
1.2346547e-08
1.2350398e-08
1.2409451e-08
1.2528603e-08
1.0040351e-08
8.818298e-09
7.6376876e-09
6.5899398e-09
5.6849864e-09
4.934896e-09
4.333446e-09
3.8882637e-09
3.5662133e-09
3.3170228e-09
3.1481035e-09
3.0362619e-09
2.9610227e-09
2.905505e-09
2.8648312e-09
2.820552e-09
2.7900763e-09
2.7750918e-09
2.7784672e-09
2.8079199e-09
2.8698773e-09
2.9699015e-09
3.1119584e-09
3.2981038e-09
3.5241808e-09
3.8193337e-09
4.1863571e-09
4.6189188e-09
5.1021964e-09
5.6154787e-09
6.1386046e-09
6.6302206e-09
7.073385e-09
7.4540855e-09
7.789733e-09
8.0631665e-09
8.2701188e-09
8.426551e-09
8.5462384e-09
8.6422179e-09
8.7154258e-09
8.7723772e-09
8.817322e-09
8.8541228e-09
8.8877883e-09
8.9124927e-09
1.249211e-08
1.1507203e-08
1.0434204e-08
9.3447691e-09
8.288784e-09
7.3039528e-09
6.4151112e-09
5.6426396e-09
4.9980725e-09
4.4578449e-09
4.0203725e-09
3.6768728e-09
3.4142425e-09
3.2199178e-09
3.0711106e-09
2.9603206e-09
2.8808997e-09
2.825235e-09
2.7869425e-09
2.7571589e-09
2.7368448e-09
2.7130704e-09
2.6970914e-09
2.688374e-09
2.6867967e-09
2.6944143e-09
2.7133749e-09
2.7458461e-09
2.7921946e-09
2.8558582e-09
2.9478842e-09
3.0605485e-09
3.1854391e-09
3.3141966e-09
3.4422904e-09
3.5654264e-09
3.6802967e-09
3.7865793e-09
3.8851945e-09
3.9770938e-09
4.0633617e-09
4.1462615e-09
4.2259239e-09
4.3030001e-09
4.3769977e-09
4.4457537e-09
1.3709241e-08
1.3075782e-08
1.232678e-08
1.1484205e-08
1.0579834e-08
9.6496372e-09
8.7282284e-09
7.8451682e-09
7.0271798e-09
6.2883094e-09
5.6352087e-09
5.070085e-09
4.5905133e-09
4.1936627e-09
3.862071e-09
3.590673e-09
3.3726983e-09
3.1992038e-09
3.0641127e-09
2.9601388e-09
2.8824132e-09
2.8226867e-09
2.777419e-09
2.7435164e-09
2.7181403e-09
2.6992577e-09
2.6851495e-09
2.6728242e-09
2.6658757e-09
2.6582587e-09
2.6597703e-09
2.6685335e-09
2.6860869e-09
2.7133173e-09
2.7506993e-09
2.798187e-09
2.8555336e-09
2.9219308e-09
2.9961772e-09
3.0767849e-09
3.1618922e-09
3.2486642e-09
3.3370967e-09
3.435628e-09
3.5368016e-09
3.6414605e-09
1.4098067e-08
1.3735081e-08
1.3293655e-08
1.2760675e-08
1.2138123e-08
1.1439821e-08
1.0687525e-08
9.9058953e-09
9.1202379e-09
8.3542069e-09
7.6261874e-09
6.9493752e-09
6.3320138e-09
5.7794087e-09
5.2911135e-09
4.8645996e-09
4.4962619e-09
4.1810719e-09
3.9146247e-09
3.688364e-09
3.4975255e-09
3.3392135e-09
3.2088262e-09
3.1019015e-09
3.0140603e-09
2.9418613e-09
2.8848844e-09
2.84144e-09
2.8089471e-09
2.7876559e-09
2.7780092e-09
2.7815227e-09
2.8004262e-09
2.8368994e-09
2.8929051e-09
2.9698281e-09
3.0684201e-09
3.1893211e-09
3.3326694e-09
3.4979071e-09
3.6839036e-09
3.8884718e-09
4.1113208e-09
4.3509433e-09
4.5979335e-09
4.8712175e-09
1.410004e-08
1.3871795e-08
1.3621449e-08
1.3322405e-08
1.2958259e-08
1.252245e-08
1.2017599e-08
1.1453479e-08
1.084452e-08
1.0207845e-08
9.5610394e-09
8.9201251e-09
8.2985304e-09
7.7068378e-09
7.1529453e-09
6.641634e-09
6.1752648e-09
5.7542237e-09
5.3777646e-09
5.043473e-09
4.7481896e-09
4.4890154e-09
4.2627867e-09
4.0665549e-09
3.8973805e-09
3.7518312e-09
3.6273928e-09
3.5241644e-09
3.4419654e-09
3.383388e-09
3.350812e-09
3.3479255e-09
3.3795101e-09
3.4507737e-09
3.5673548e-09
3.7343125e-09
3.9558809e-09
4.2355904e-09
4.5758475e-09
4.9775606e-09
5.439851e-09
5.9606921e-09
6.5350632e-09
7.1632272e-09
7.8202825e-09
8.5689646e-09
1.4004203e-08
1.3804635e-08
1.3626582e-08
1.3446534e-08
1.3244277e-08
1.300416e-08
1.2716311e-08
1.2376984e-08
1.1987861e-08
1.155494e-08
1.1087262e-08
1.0595538e-08
1.0090828e-08
9.5835186e-09
9.0830033e-09
8.597117e-09
8.1320225e-09
7.6922391e-09
7.280809e-09
6.8995328e-09
6.5490098e-09
6.2289656e-09
5.9382855e-09
5.6760566e-09
5.4410551e-09
5.2325184e-09
5.0503789e-09
4.896427e-09
4.7730303e-09
4.6870276e-09
4.6461009e-09
4.6601619e-09
4.7405645e-09
4.901546e-09
5.1565318e-09
5.5186747e-09
5.9999277e-09
6.6106323e-09
7.3586501e-09
8.2481563e-09
9.2785712e-09
1.044584e-08
1.1738401e-08
1.3153287e-08
1.4639551e-08
1.6315199e-08
1.3933224e-08
1.3713752e-08
1.3534665e-08
1.3382733e-08
1.3243397e-08
1.3102239e-08
1.2946596e-08
1.2766768e-08
1.2556564e-08
1.2313356e-08
1.2037523e-08
1.173232e-08
1.1402319e-08
1.1053173e-08
1.0691485e-08
1.0323711e-08
9.9557851e-09
9.5929647e-09
9.2396876e-09
8.8995341e-09
8.5751825e-09
8.2685141e-09
7.9802938e-09
7.7114266e-09
7.462309e-09
7.2340895e-09
7.0294651e-09
6.8537617e-09
6.7140312e-09
6.6242375e-09
6.6007318e-09
6.6632219e-09
6.8364284e-09
7.1447892e-09
7.6133102e-09
8.265508e-09
9.1227312e-09
1.0203515e-08
1.1522673e-08
1.3082716e-08
1.4877882e-08
1.6895433e-08
1.911294e-08
2.1516165e-08
2.4033507e-08
2.6800714e-08
1.3905508e-08
1.3661369e-08
1.345749e-08
1.3289237e-08
1.3149794e-08
1.303069e-08
1.2922796e-08
1.2817325e-08
1.2706703e-08
1.2584802e-08
1.2448706e-08
1.2290667e-08
1.2122519e-08
1.1941774e-08
1.173908e-08
1.152274e-08
1.1296975e-08
1.1065431e-08
1.0831537e-08
1.059834e-08
1.0368447e-08
1.014384e-08
9.9255119e-09
9.7146727e-09
9.5122735e-09
9.3202831e-09
9.1431418e-09
8.9882886e-09
8.8701239e-09
8.8061844e-09
8.8221166e-09
8.948883e-09
9.2223235e-09
9.6792552e-09
1.0356588e-08
1.1288607e-08
1.2504217e-08
1.4024869e-08
1.5862212e-08
1.8016184e-08
2.0474598e-08
2.3214802e-08
2.6203097e-08
2.9411199e-08
3.2758259e-08
3.6359272e-08
1.3902216e-08
1.3645406e-08
1.3422127e-08
1.3230974e-08
1.3069824e-08
1.2935371e-08
1.2823259e-08
1.2728449e-08
1.2645828e-08
1.2570116e-08
1.2498483e-08
1.2421687e-08
1.234063e-08
1.2261123e-08
1.21733e-08
1.2087655e-08
1.2006322e-08
1.1918982e-08
1.1824787e-08
1.1722831e-08
1.1611391e-08
1.1495908e-08
1.1378566e-08
1.1259501e-08
1.1138884e-08
1.1018165e-08
1.0901665e-08
1.0798586e-08
1.0724694e-08
1.0704281e-08
1.0769372e-08
1.0961592e-08
1.1324234e-08
1.1905019e-08
1.2750307e-08
1.3901863e-08
1.5393446e-08
1.7247974e-08
1.9475083e-08
2.2069493e-08
2.5011259e-08
2.8268091e-08
3.1796769e-08
3.5556343e-08
3.9466782e-08
4.3603131e-08
1.3905515e-08
1.3646229e-08
1.3415577e-08
1.3211574e-08
1.3032983e-08
1.2878559e-08
1.2746711e-08
1.2635394e-08
1.2542271e-08
1.2464601e-08
1.2400193e-08
1.2345933e-08
1.2298705e-08
1.2258379e-08
1.2219311e-08
1.2179124e-08
1.2145706e-08
1.2116697e-08
1.2102102e-08
1.2104213e-08
1.2109089e-08
1.2112321e-08
1.2110276e-08
1.2099915e-08
1.2079676e-08
1.2049447e-08
1.2012712e-08
1.1979128e-08
1.1966227e-08
1.2001282e-08
1.2128315e-08
1.2371016e-08
1.2773086e-08
1.3425313e-08
1.4370765e-08
1.5654968e-08
1.7315263e-08
1.9375862e-08
2.1844901e-08
2.4713295e-08
2.7955354e-08
3.1532271e-08
3.5393703e-08
3.9490539e-08
4.3743135e-08
4.8192657e-08
1.3908159e-08
1.3650039e-08
1.3419144e-08
1.3212132e-08
1.3026886e-08
1.2861953e-08
1.2716214e-08
1.2588655e-08
1.2478272e-08
1.2383999e-08
1.2304726e-08
1.223954e-08
1.2187222e-08
1.2146737e-08
1.2116987e-08
1.2096046e-08
1.2083867e-08
1.2079283e-08
1.2079545e-08
1.2087478e-08
1.2101642e-08
1.211921e-08
1.2141589e-08
1.216427e-08
1.2181051e-08
1.2198491e-08
1.2205454e-08
1.2215705e-08
1.2239322e-08
1.2301393e-08
1.2446893e-08
1.2723163e-08
1.3187268e-08
1.3900527e-08
1.4923328e-08
1.631022e-08
1.8104991e-08
2.0336349e-08
2.3014563e-08
2.6130485e-08
2.9655757e-08
3.3548106e-08
3.7750811e-08
4.221187e-08
4.6841163e-08
5.1691795e-08
1.3909466e-08
1.3652394e-08
1.3422823e-08
1.3216782e-08
1.3031389e-08
1.2864486e-08
1.2714461e-08
1.2580102e-08
1.2460481e-08
1.2354886e-08
1.2262726e-08
1.2183589e-08
1.2117203e-08
1.2063285e-08
1.2021754e-08
1.1992503e-08
1.1975195e-08
1.1969487e-08
1.1975155e-08
1.1990689e-08
1.2014037e-08
1.2042947e-08
1.207561e-08
1.210905e-08
1.2140023e-08
1.216537e-08
1.2186437e-08
1.2210901e-08
1.2255322e-08
1.2346535e-08
1.2524583e-08
1.2841981e-08
1.3360947e-08
1.4149581e-08
1.5276868e-08
1.6807174e-08
1.8794287e-08
2.1275702e-08
2.4267657e-08
2.7763591e-08
3.1733006e-08
3.6129524e-08
4.0885676e-08
4.5946242e-08
5.1193153e-08
5.6727801e-08
1.3910236e-08
1.365351e-08
1.3424649e-08
1.321967e-08
1.3035499e-08
1.286966e-08
1.2720159e-08
1.2585419e-08
1.2464212e-08
1.2355616e-08
1.2258965e-08
1.2173813e-08
1.2099939e-08
1.2037269e-08
1.1985988e-08
1.1945959e-08
1.1919097e-08
1.1898365e-08
1.1896295e-08
1.1904658e-08
1.1922201e-08
1.1948486e-08
1.1980945e-08
1.2016303e-08
1.2051535e-08
1.2084771e-08
1.2117783e-08
1.2158496e-08
1.2224101e-08
1.2343798e-08
1.2560801e-08
1.2931979e-08
1.3526378e-08
1.442197e-08
1.5700889e-08
1.7443347e-08
1.97202e-08
2.2584905e-08
2.6065691e-08
3.0162428e-08
3.4842839e-08
4.0054816e-08
4.5714155e-08
5.1761488e-08
5.803182e-08
6.4713923e-08
1.3910679e-08
1.3654082e-08
1.3425425e-08
1.3220823e-08
1.3037274e-08
1.2872304e-08
1.2723851e-08
1.2590212e-08
1.2470001e-08
1.2362121e-08
1.2265742e-08
1.2180272e-08
1.2105351e-08
1.2040822e-08
1.198672e-08
1.1943222e-08
1.1910394e-08
1.1890178e-08
1.1877562e-08
1.1881144e-08
1.1892002e-08
1.1912236e-08
1.1939777e-08
1.1972283e-08
1.2007505e-08
1.2044727e-08
1.2086832e-08
1.2143091e-08
1.2232412e-08
1.2386552e-08
1.2652774e-08
1.3094452e-08
1.3790732e-08
1.4834443e-08
1.6328009e-08
1.8376997e-08
2.1080701e-08
2.4520414e-08
2.8746708e-08
3.3772389e-08
3.9563639e-08
4.6059341e-08
5.3146175e-08
6.07552e-08
6.8634885e-08
7.7129983e-08
1.3910604e-08
1.3654163e-08
1.3425627e-08
1.322114e-08
1.3037751e-08
1.287304e-08
1.2724991e-08
1.2591919e-08
1.2472434e-08
1.2365412e-08
1.2269972e-08
1.2185466e-08
1.211146e-08
1.2047725e-08
1.1994198e-08
1.1951023e-08
1.1918228e-08
1.1896458e-08
1.1885442e-08
1.1885355e-08
1.1895385e-08
1.1914662e-08
1.1941754e-08
1.1975009e-08
1.2013275e-08
1.2057088e-08
1.2110836e-08
1.2185675e-08
1.2303032e-08
1.2498317e-08
1.2824187e-08
1.3353107e-08
1.4178518e-08
1.5414821e-08
1.7194835e-08
1.9663827e-08
2.296783e-08
2.7236911e-08
3.2563868e-08
3.8989116e-08
4.6483968e-08
5.4977901e-08
6.4306789e-08
7.4387127e-08
8.482697e-08
9.6281482e-08
1.3910048e-08
1.3653721e-08
1.3425294e-08
1.3220895e-08
1.3037574e-08
1.2872925e-08
1.2724952e-08
1.2591996e-08
1.2472692e-08
1.2365936e-08
1.2270861e-08
1.2186825e-08
1.2113394e-08
1.2050329e-08
1.1997564e-08
1.1955184e-08
1.1923363e-08
1.1902271e-08
1.189216e-08
1.1892853e-08
1.1904081e-08
1.1925084e-08
1.1954813e-08
1.1992154e-08
1.2036821e-08
1.2090542e-08
1.2159264e-08
1.2256228e-08
1.2405826e-08
1.2647931e-08
1.3042288e-08
1.3673221e-08
1.4653301e-08
1.6126959e-08
1.8271167e-08
2.1292115e-08
2.5412441e-08
3.0848e-08
3.7772045e-08
4.6289854e-08
5.6398933e-08
6.8012841e-08
8.0882732e-08
9.4948657e-08
1.0959355e-07
1.2596638e-07
1.3909376e-08
1.3653047e-08
1.342464e-08
1.3220277e-08
1.3036995e-08
1.2872379e-08
1.2724428e-08
1.2591487e-08
1.2472195e-08
1.2365456e-08
1.2270416e-08
1.2186444e-08
1.2113116e-08
1.2050205e-08
1.1997658e-08
1.1955572e-08
1.1924143e-08
1.1903623e-08
1.1894065e-08
1.1896171e-08
1.1908482e-08
1.1931508e-08
1.1964391e-08
1.2006719e-08
1.2058883e-08
1.2123764e-08
1.2208893e-08
1.2329724e-08
1.2513916e-08
1.2806505e-08
1.3275739e-08
1.4020545e-08
1.5177744e-08
1.6931928e-08
1.9521775e-08
2.3244728e-08
2.8447309e-08
3.5490619e-08
4.4711162e-08
5.636157e-08
7.0497105e-08
8.7045051e-08
1.0573951e-07
1.2662684e-07
1.4833027e-07
1.7283112e-07
1.3908793e-08
1.3652404e-08
1.3423958e-08
1.3219574e-08
1.3036284e-08
1.2871668e-08
1.2723722e-08
1.2590783e-08
1.2471488e-08
1.2364739e-08
1.2269682e-08
1.2185684e-08
1.2112327e-08
1.2049386e-08
1.1996814e-08
1.1954724e-08
1.192332e-08
1.1902936e-08
1.189352e-08
1.1896718e-08
1.1909603e-08
1.1934186e-08
1.1969814e-08
1.2016625e-08
1.2075863e-08
1.2151577e-08
1.2252886e-08
1.2397538e-08
1.2616673e-08
1.2961002e-08
1.3508339e-08
1.4374621e-08
1.5725785e-08
1.7797883e-08
2.0911114e-08
2.5496991e-08
3.2088318e-08
4.1292066e-08
5.3780015e-08
7.0042478e-08
9.0348863e-08
1.149447e-07
1.4356824e-07
1.7576271e-07
2.0836153e-07
2.4723044e-07
1.3908166e-08
1.3651737e-08
1.3423262e-08
1.3218858e-08
1.3035555e-08
1.287093e-08
1.2722977e-08
1.2590033e-08
1.2470731e-08
1.2363974e-08
1.2268904e-08
1.2184888e-08
1.2111504e-08
1.2048529e-08
1.1995909e-08
1.1953793e-08
1.1922264e-08
1.1902262e-08
1.1891335e-08
1.189553e-08
1.1909668e-08
1.1935663e-08
1.1973652e-08
1.2024335e-08
1.2089902e-08
1.2175554e-08
1.2291961e-08
1.2459191e-08
1.2711934e-08
1.3106842e-08
1.3731943e-08
1.472193e-08
1.6275828e-08
1.8692083e-08
2.2392731e-08
2.7998068e-08
3.6291853e-08
4.8334882e-08
6.5307557e-08
8.8136312e-08
1.1811183e-07
1.5596623e-07
2.0029161e-07
2.4995778e-07
3.0299142e-07
3.7433258e-07
1.3907251e-08
1.3650822e-08
1.3422358e-08
1.3217969e-08
1.3034682e-08
1.2870073e-08
1.2722133e-08
1.2589198e-08
1.2469902e-08
1.2363145e-08
1.226807e-08
1.2184045e-08
1.2110647e-08
1.2047654e-08
1.1995016e-08
1.195287e-08
1.1921391e-08
1.1901124e-08
1.1891766e-08
1.1895429e-08
1.1909577e-08
1.1936605e-08
1.1976646e-08
1.2030857e-08
1.2102158e-08
1.2196791e-08
1.2326903e-08
1.2514814e-08
1.2798685e-08
1.3241044e-08
1.3940327e-08
1.50508e-08
1.680697e-08
1.957858e-08
2.3909212e-08
3.0659115e-08
4.0956202e-08
5.6602348e-08
7.9280622e-08
1.1158701e-07
1.5652243e-07
2.137581e-07
2.8129544e-07
3.6591429e-07
4.6952912e-07
6.064783e-07
1.3906086e-08
1.3649665e-08
1.3421222e-08
1.3216865e-08
1.3033614e-08
1.2869042e-08
1.2721136e-08
1.2588231e-08
1.2468958e-08
1.2362217e-08
1.2267151e-08
1.2183126e-08
1.2109721e-08
1.2046714e-08
1.1994059e-08
1.1951908e-08
1.1920395e-08
1.1900382e-08
1.1889989e-08
1.1894567e-08
1.190979e-08
1.1937916e-08
1.1979753e-08
1.2037014e-08
1.2113306e-08
1.2215819e-08
1.2358006e-08
1.2564245e-08
1.287597e-08
1.3361246e-08
1.4128617e-08
1.5352143e-08
1.7300984e-08
2.042604e-08
2.5395674e-08
3.3374911e-08
4.5950908e-08
6.5778412e-08
9.5517215e-08
1.417117e-07
2.0603015e-07
2.8995626e-07
4.021401e-07
5.693743e-07
7.6280472e-07
1.0019116e-06
1.3904851e-08
1.3648432e-08
1.3420006e-08
1.3215675e-08
1.3032458e-08
1.2867925e-08
1.2720061e-08
1.2587198e-08
1.2467964e-08
1.2361257e-08
1.2266216e-08
1.2182209e-08
1.2108814e-08
1.2045809e-08
1.1993152e-08
1.1950991e-08
1.1919528e-08
1.1899342e-08
1.1890236e-08
1.1894354e-08
1.1909625e-08
1.1938653e-08
1.1982175e-08
1.2042222e-08
1.212294e-08
1.2232365e-08
1.2385131e-08
1.2607427e-08
1.2943585e-08
1.346667e-08
1.4294492e-08
1.5620672e-08
1.7744876e-08
2.1212204e-08
2.6781958e-08
3.6085775e-08
5.0992694e-08
7.5374257e-08
1.1432645e-07
1.7779866e-07
2.6345841e-07
3.9601304e-07
5.997414e-07
9.048594e-07
1.1905604e-06
1.6594211e-06
1.3903628e-08
1.364722e-08
1.3418814e-08
1.3214511e-08
1.3031328e-08
1.2866834e-08
1.2719012e-08
1.2586192e-08
1.2467001e-08
1.2360333e-08
1.2265327e-08
1.2181346e-08
1.2107967e-08
1.2044969e-08
1.1992311e-08
1.1950148e-08
1.1918664e-08
1.1898658e-08
1.1888722e-08
1.1893624e-08
1.1909753e-08
1.1939592e-08
1.1984454e-08
1.2046775e-08
1.2131263e-08
1.2246498e-08
1.2408074e-08
1.2643926e-08
1.3001e-08
1.3556723e-08
1.4437124e-08
1.5853851e-08
1.8134872e-08
2.1915935e-08
2.8034006e-08
3.8732025e-08
5.5606348e-08
8.5527142e-08
1.3522338e-07
2.1549346e-07
3.3259672e-07
5.5737939e-07
8.8949067e-07
1.348761e-06
1.7644021e-06
2.9653953e-06
1.3902356e-08
1.3645992e-08
1.341763e-08
1.3213368e-08
1.3030228e-08
1.286578e-08
1.2718008e-08
1.2585241e-08
1.2466106e-08
1.2359495e-08
1.2264545e-08
1.2180616e-08
1.2107286e-08
1.204433e-08
1.1991707e-08
1.1949573e-08
1.1918147e-08
1.1898045e-08
1.1889106e-08
1.1893571e-08
1.1909701e-08
1.1940235e-08
1.1986348e-08
1.2050716e-08
1.2138294e-08
1.2258759e-08
1.2428129e-08
1.2675398e-08
1.3049855e-08
1.3632768e-08
1.4557469e-08
1.6049656e-08
1.8470606e-08
2.2513427e-08
2.9182746e-08
4.1082848e-08
5.9716214e-08
9.6646835e-08
1.5513587e-07
2.5372494e-07
4.2781535e-07
7.7564597e-07
1.2248465e-06
1.872835e-06
2.6612855e-06
5.7653854e-06
1.390095e-08
1.3644679e-08
1.34164e-08
1.321221e-08
1.3029128e-08
1.2864733e-08
1.271701e-08
1.2584293e-08
1.2465207e-08
1.2358643e-08
1.2263737e-08
1.2179849e-08
1.2106554e-08
1.2043627e-08
1.1991029e-08
1.194892e-08
1.1917513e-08
1.1897547e-08
1.1888042e-08
1.1893185e-08
1.1909968e-08
1.1941036e-08
1.1988072e-08
1.2054037e-08
1.2144452e-08
1.2268117e-08
1.2443836e-08
1.2701192e-08
1.3090789e-08
1.3697113e-08
1.4659791e-08
1.621817e-08
1.8761144e-08
2.301827e-08
3.0227151e-08
4.2898467e-08
6.3993659e-08
1.0763761e-07
1.7162298e-07
2.9864364e-07
5.5198224e-07
1.0079495e-06
1.5635784e-06
2.5559551e-06
4.2052186e-06
1.1216578e-05
1.3899312e-08
1.364319e-08
1.3415046e-08
1.3210967e-08
1.3027977e-08
1.2863661e-08
1.2716012e-08
1.2583366e-08
1.2464354e-08
1.235787e-08
1.2263047e-08
1.2179246e-08
1.210604e-08
1.2043203e-08
1.1990695e-08
1.1948673e-08
1.1917368e-08
1.1897417e-08
1.1888649e-08
1.1893417e-08
1.1910262e-08
1.1941907e-08
1.1989876e-08
1.2057153e-08
1.2150012e-08
1.2276197e-08
1.2455961e-08
1.2720626e-08
1.3122052e-08
1.3746609e-08
1.4738025e-08
1.6343128e-08
1.8978972e-08
2.3438439e-08
3.1047407e-08
4.4404728e-08
6.8862181e-08
1.1625813e-07
1.8660272e-07
3.5379177e-07
6.8624086e-07
1.2110219e-06
1.9321367e-06
3.5291107e-06
6.971354e-06
2.0288625e-05
1.3897424e-08
1.3641512e-08
1.3413553e-08
1.3209623e-08
1.3026747e-08
1.2862515e-08
1.2714926e-08
1.2582324e-08
1.2463341e-08
1.2356876e-08
1.2262066e-08
1.2178271e-08
1.2105068e-08
1.2042235e-08
1.1989735e-08
1.1947732e-08
1.1916466e-08
1.1896623e-08
1.188759e-08
1.1892934e-08
1.1910274e-08
1.1942327e-08
1.1991036e-08
1.2059658e-08
1.2154147e-08
1.2285833e-08
1.2470443e-08
1.2741013e-08
1.3152149e-08
1.3793743e-08
1.4816277e-08
1.6475819e-08
1.9223983e-08
2.3798027e-08
3.1686613e-08
4.6186515e-08
7.3546537e-08
1.2161031e-07
2.0368362e-07
4.1361346e-07
8.0926883e-07
1.3762601e-06
2.384762e-06
4.8791691e-06
1.1734301e-05
3.2493995e-05
1.3895328e-08
1.3639626e-08
1.3411887e-08
1.3208158e-08
1.3025457e-08
1.2861374e-08
1.2713916e-08
1.2581436e-08
1.2462576e-08
1.2356239e-08
1.2261565e-08
1.2177916e-08
1.2104867e-08
1.2042191e-08
1.1989848e-08
1.1947996e-08
1.1916874e-08
1.1897118e-08
1.1888582e-08
1.189363e-08
1.1911097e-08
1.1943579e-08
1.199282e-08