/*--------------------------------*- C++ -*----------------------------------*\
| =========                 |                                                 |
| \\      /  F ield         | OpenFOAM: The Open Source CFD Toolbox           |
|  \\    /   O peration     | Version:  v2006                                 |
|   \\  /    A nd           | Website:  www.openfoam.com                      |
|    \\/     M anipulation  |                                                 |
\*---------------------------------------------------------------------------*/
FoamFile
{
    version     2.0;
    format      ascii;
    class       volScalarField;
    location    "6000";
    object      nut;
}
// * * * * * * * * * * * * * * * * * * * * * * * * * * * * * * * * * * * * * //

dimensions      [0 2 -1 0 0 0 0];


internalField   nonuniform List<scalar> 
21256
(
2.4280705e-09
1.5072033e-08
6.1523504e-08
8.7908269e-08
9.5352456e-08
9.511422e-08
9.3990932e-08
9.3462957e-08
9.3348598e-08
9.3358715e-08
9.3376972e-08
9.3383592e-08
9.3385234e-08
9.3385787e-08
9.3389455e-08
9.3392778e-08
9.3396664e-08
9.3398033e-08
9.3397731e-08
9.339221e-08
9.3383261e-08
9.3379038e-08
9.3378128e-08
9.3378292e-08
9.3376378e-08
9.3373053e-08
9.3369968e-08
9.3367657e-08
9.3365992e-08
9.3363871e-08
9.3360626e-08
9.3356194e-08
9.3350086e-08
9.334356e-08
9.333842e-08
9.3333056e-08
3.434599e-09
2.1929419e-08
7.164105e-08
9.2909837e-08
9.7072417e-08
9.6211076e-08
9.5294764e-08
9.496965e-08
9.4927531e-08
9.4946084e-08
9.4958104e-08
9.4961072e-08
9.4961062e-08
9.4960635e-08
9.4964923e-08
9.496756e-08
9.4971349e-08
9.4971644e-08
9.497142e-08
9.4965677e-08
9.4955004e-08
9.4950073e-08
9.4948368e-08
9.494823e-08
9.4945993e-08
9.4942343e-08
9.4938841e-08
9.4935963e-08
9.4933736e-08
9.4931325e-08
9.4927781e-08
9.4923111e-08
9.4916472e-08
9.4908741e-08
9.4902751e-08
9.4895841e-08
5.068128e-09
3.046816e-08
8.0783937e-08
9.6632461e-08
9.8577301e-08
9.7510937e-08
9.6832985e-08
9.6658443e-08
9.6656686e-08
9.6674323e-08
9.6680717e-08
9.6680745e-08
9.6679324e-08
9.6678054e-08
9.668318e-08
9.6685202e-08
9.6688752e-08
9.6687252e-08
9.6687949e-08
9.6681402e-08
9.6670427e-08
9.6664134e-08
9.6661937e-08
9.6661377e-08
9.6659001e-08
9.6654968e-08
9.6651332e-08
9.6648028e-08
9.6645367e-08
9.6642713e-08
9.6639059e-08
9.6634379e-08
9.662762e-08
9.661884e-08
9.6612306e-08
9.6604346e-08
7.5460906e-09
4.101522e-08
8.8947866e-08
9.9762961e-08
1.0009704e-07
9.9054071e-08
9.8618958e-08
9.8548914e-08
9.8563471e-08
9.8574587e-08
9.8576402e-08
9.8574445e-08
9.8572613e-08
9.8570872e-08
9.8576209e-08
9.8578665e-08
9.858091e-08
9.85778e-08
9.8579507e-08
9.8572139e-08
9.8561537e-08
9.8554197e-08
9.8551253e-08
9.8550735e-08
9.8547906e-08
9.8543723e-08
9.8539969e-08
9.8536642e-08
9.853368e-08
9.8530957e-08
9.8527378e-08
9.8522965e-08
9.8516658e-08
9.8507068e-08
9.8500448e-08
9.849184e-08
1.1305391e-08
5.339127e-08
9.5342454e-08
1.0238402e-07
1.0174125e-07
1.0090378e-07
1.0067563e-07
1.0066304e-07
1.0067585e-07
1.0068013e-07
1.006793e-07
1.006764e-07
1.0067405e-07
1.0067194e-07
1.0067718e-07
1.0068058e-07
1.006817e-07
1.0067635e-07
1.0067931e-07
1.0067079e-07
1.0066177e-07
1.0065406e-07
1.0065013e-07
1.0065005e-07
1.0064681e-07
1.0064254e-07
1.0063883e-07
1.0063578e-07
1.0063296e-07
1.0063044e-07
1.0062718e-07
1.0062337e-07
1.0061827e-07
1.006083e-07
1.0060218e-07
1.0059356e-07
1.687531e-08
6.7187432e-08
9.9315948e-08
1.0454807e-07
1.0363229e-07
1.0310969e-07
1.0302419e-07
1.0303163e-07
1.0303622e-07
1.0303666e-07
1.0303399e-07
1.0303048e-07
1.0302776e-07
1.0302538e-07
1.0303054e-07
1.0303518e-07
1.0303537e-07
1.0302672e-07
1.030315e-07
1.0302132e-07
1.0301554e-07
1.0300826e-07
1.0300372e-07
1.0300372e-07
1.0300069e-07
1.0299645e-07
1.0299298e-07
1.0299035e-07
1.0298834e-07
1.0298653e-07
1.0298388e-07
1.0298103e-07
1.0297802e-07
1.0296839e-07
1.029635e-07
1.0295569e-07
2.5009515e-08
8.1800058e-08
1.0460779e-07
1.0656123e-07
1.059108e-07
1.0571048e-07
1.0569597e-07
1.0570026e-07
1.0569907e-07
1.0569803e-07
1.0569383e-07
1.0569007e-07
1.0568723e-07
1.0568468e-07
1.0568954e-07
1.0569644e-07
1.0569527e-07
1.0568185e-07
1.0568977e-07
1.0567809e-07
1.0567635e-07
1.0567026e-07
1.0566583e-07
1.0566516e-07
1.056635e-07
1.056597e-07
1.0565661e-07
1.0565481e-07
1.0565418e-07
1.0565362e-07
1.0565214e-07
1.0565069e-07
1.0565037e-07
1.0564249e-07
1.0563967e-07
1.0563372e-07
3.6289095e-08
9.652775e-08
1.0867471e-07
1.0904582e-07
1.0876967e-07
1.0872415e-07
1.0872353e-07
1.0872154e-07
1.0871844e-07
1.0871765e-07
1.0871258e-07
1.0870853e-07
1.087058e-07
1.0870339e-07
1.0870692e-07
1.0871911e-07
1.0871483e-07
1.0869682e-07
1.0870572e-07
1.0869641e-07
1.0869814e-07
1.0869328e-07
1.0868956e-07
1.0868901e-07
1.0869079e-07
1.0868785e-07
1.086857e-07
1.0868513e-07
1.0868556e-07
1.0868511e-07
1.0868575e-07
1.0868638e-07
1.0868766e-07
1.0868431e-07
1.0868412e-07
1.0868116e-07
5.0983571e-08
1.1034692e-07
1.1231498e-07
1.121424e-07
1.1210655e-07
1.1210768e-07
1.1210554e-07
1.1210189e-07
1.1209903e-07
1.121006e-07
1.120959e-07
1.1209187e-07
1.120895e-07
1.1208771e-07
1.1208878e-07
1.1210302e-07
1.1209584e-07
1.1208347e-07
1.1208782e-07
1.1208489e-07
1.1208689e-07
1.1208446e-07
1.1208208e-07
1.1208234e-07
1.1208671e-07
1.1208614e-07
1.1208604e-07
1.1208626e-07
1.1208715e-07
1.1208835e-07
1.1209092e-07
1.120917e-07
1.1209592e-07
1.1209633e-07
1.1209847e-07
1.1209952e-07
8.4318178e-08
8.4320052e-08
8.432298e-08
8.4328903e-08
8.4334626e-08
8.4340444e-08
8.4345697e-08
8.4350043e-08
8.4353512e-08
8.4356607e-08
8.4359695e-08
8.436302e-08
8.4366233e-08
8.4368468e-08
8.4369541e-08
8.437116e-08
8.4374492e-08
8.4378053e-08
8.4379194e-08
8.4377675e-08
8.4375191e-08
8.4372677e-08
8.4366338e-08
8.4348414e-08
8.4330785e-08
8.4402514e-08
8.4760529e-08
8.5546965e-08
8.632405e-08
8.5275093e-08
7.8928706e-08
6.1835861e-08
3.3010611e-08
8.6694787e-09
1.8834384e-09
2.1942659e-09
8.4896748e-08
8.4899679e-08
8.4904585e-08
8.4910239e-08
8.4916145e-08
8.4921935e-08
8.4927023e-08
8.4931167e-08
8.4934466e-08
8.4937458e-08
8.4940506e-08
8.4943865e-08
8.4947072e-08
8.4949166e-08
8.4950148e-08
8.4951908e-08
8.4955446e-08
8.4959102e-08
8.496017e-08
8.4958561e-08
8.495585e-08
8.4952576e-08
8.4945409e-08
8.4929593e-08
8.491885e-08
8.4990876e-08
8.5315321e-08
8.6032078e-08
8.6819181e-08
8.6123953e-08
8.0460026e-08
6.5228974e-08
3.7004276e-08
1.0384879e-08
1.8770061e-09
1.8557421e-09
8.5547857e-08
8.5551718e-08
8.5557196e-08
8.5562969e-08
8.5569021e-08
8.557488e-08
8.5579932e-08
8.558396e-08
8.5587154e-08
8.5590046e-08
8.5593057e-08
8.5596424e-08
8.5599631e-08
8.560159e-08
8.5602476e-08
8.5604305e-08
8.5608097e-08
8.5612012e-08
8.5613195e-08
8.5611492e-08
8.560867e-08
8.5605902e-08
8.5600793e-08
8.5587033e-08
8.5567843e-08
8.5598103e-08
8.5832774e-08
8.6464473e-08
8.7367507e-08
8.7346686e-08
8.3260923e-08
7.0122122e-08
4.2788718e-08
1.2955282e-08
2.04639e-09
1.6307557e-09
8.6280682e-08
8.6285359e-08
8.6291113e-08
8.6297013e-08
8.6303168e-08
8.6309015e-08
8.6313923e-08
8.6317755e-08
8.632077e-08
8.6323531e-08
8.6326488e-08
8.6329879e-08
8.6333053e-08
8.6334812e-08
8.6335555e-08
8.6337493e-08
8.6341588e-08
8.634575e-08
8.6346997e-08
8.6345212e-08
8.6342192e-08
8.6339398e-08
8.633535e-08
8.6324546e-08
8.6305447e-08
8.6313748e-08
8.6476371e-08
8.6998144e-08
8.7899568e-08
8.8320964e-08
8.5527463e-08
7.4640478e-08
4.8899189e-08
1.6315937e-08
2.4184659e-09
1.4703632e-09
8.7109766e-08
8.7114978e-08
8.7120854e-08
8.7126869e-08
8.7133101e-08
8.7138879e-08
8.7143579e-08
8.7147164e-08
8.7149953e-08
8.7152548e-08
8.7155443e-08
8.715886e-08
8.7161961e-08
8.716345e-08
8.7164021e-08
8.7166089e-08
8.7170559e-08
8.7175001e-08
8.7176308e-08
8.7174453e-08
8.717126e-08
8.7168447e-08
8.7165306e-08
8.7157166e-08
8.7139126e-08
8.7130247e-08
8.7227759e-08
8.7631873e-08
8.8480279e-08
8.925017e-08
8.7664202e-08
7.9018012e-08
5.5574868e-08
2.0730812e-08
2.9922256e-09
1.377626e-09
8.8052736e-08
8.8058253e-08
8.8064196e-08
8.8070289e-08
8.8076558e-08
8.8082175e-08
8.8086579e-08
8.8089836e-08
8.8092332e-08
8.8094709e-08
8.8097528e-08
8.8100942e-08
8.810389e-08
8.8104997e-08
8.8105366e-08
8.8107585e-08
8.8112523e-08
8.8117263e-08
8.8118587e-08
8.8116671e-08
8.8113306e-08
8.8110369e-08
8.8107802e-08
8.8102191e-08
8.8087394e-08
8.8069639e-08
8.8115227e-08
8.8399924e-08
8.9133618e-08
9.0101058e-08
8.955448e-08
8.2694388e-08
6.2598911e-08
2.6250411e-08
3.7834214e-09
1.3504395e-09
8.9132068e-08
8.9137776e-08
8.9143711e-08
8.9149851e-08
8.9156085e-08
8.9161429e-08
8.9165421e-08
8.9168263e-08
8.9170372e-08
8.9172491e-08
8.9175192e-08
8.9178555e-08
8.9181198e-08
8.9181812e-08
8.918196e-08
8.9184382e-08
8.9189917e-08
8.9194977e-08
8.9196231e-08
8.9194286e-08
8.9190759e-08
8.9187686e-08
8.9185392e-08
8.9181875e-08
8.9171073e-08
8.9150945e-08
8.9159552e-08
8.9335264e-08
8.9914531e-08
9.0917804e-08
9.1174283e-08
8.6628815e-08
6.9771765e-08
3.3231221e-08
5.0557282e-09
1.4010479e-09
9.0375868e-08
9.0381727e-08
9.0387551e-08
9.0393719e-08
9.0399813e-08
9.0404754e-08
9.0408194e-08
9.0410528e-08
9.0412143e-08
9.0413994e-08
9.0416495e-08
9.041971e-08
9.0421818e-08
9.0421857e-08
9.0421799e-08
9.0424486e-08
9.0430829e-08
9.0436158e-08
9.0437181e-08
9.0435261e-08
9.0431573e-08
9.0428413e-08
9.0426073e-08
9.0424144e-08
9.0417425e-08
9.0399978e-08
9.0387138e-08
9.0472872e-08
9.0881816e-08
9.1806839e-08
9.2598485e-08
9.001053e-08
7.6872733e-08
4.1731563e-08
7.0399013e-09
1.5448002e-09
9.1816739e-08
9.182274e-08
9.1828327e-08
9.1834525e-08
9.1840375e-08
9.1844764e-08
9.1847577e-08
9.1849327e-08
9.1850419e-08
9.1852015e-08
9.185425e-08
9.1857173e-08
9.1858589e-08
9.1858058e-08
9.1857936e-08
9.1861027e-08
9.186834e-08
9.187378e-08
9.187432e-08
9.187261e-08
9.1868723e-08
9.1865582e-08
9.1862825e-08
9.1862013e-08
9.1858571e-08
9.1846863e-08
9.1826348e-08
9.1848577e-08
9.2090224e-08
9.2838718e-08
9.3927663e-08
9.2992842e-08
8.347971e-08
5.1674503e-08
1.0558375e-08
1.8314629e-09
2.4406453e-09
2.5205779e-09
2.597436e-09
2.6630556e-09
2.7208383e-09
2.7723353e-09
2.8193844e-09
2.8610726e-09
2.8992752e-09
2.929915e-09
2.9577365e-09
2.9853547e-09
3.0123368e-09
3.0365632e-09
3.0552388e-09
3.0651693e-09
3.0628212e-09
3.044222e-09
3.0050081e-09
2.9404208e-09
2.8457401e-09
2.7161468e-09
2.5487061e-09
2.3420759e-09
2.1009422e-09
1.8325346e-09
1.5414924e-09
1.2385604e-09
9.3169674e-10
6.2764336e-10
3.6899041e-10
1.6114453e-10
2.9439545e-11
2.4826798e-11
6.4155229e-11
1.8394662e-10
4.0450401e-10
7.1057812e-10
1.0685716e-09
1.441076e-09
1.8036402e-09
2.1586507e-09
2.5070327e-09
2.8685489e-09
3.1745394e-09
3.5120302e-09
1.8946024e-09
1.9136605e-09
1.9420131e-09
1.9997417e-09
2.0752033e-09
2.1578413e-09
2.2416471e-09
2.3207905e-09
2.3940492e-09
2.4576907e-09
2.5112331e-09
2.5566412e-09
2.5961484e-09
2.6311397e-09
2.6618258e-09
2.6873817e-09
2.7061031e-09
2.7155051e-09
2.712447e-09
2.6930994e-09
2.6533107e-09
2.5882692e-09
2.4939149e-09
2.3640531e-09
2.1902891e-09
1.9746406e-09
1.7271815e-09
1.4593603e-09
1.1859213e-09
9.183426e-10
6.6702047e-10
4.7499486e-10
2.8843429e-10
1.7073622e-10
1.0653134e-10
1.2706024e-10
2.0525861e-10
3.429305e-10
5.3077938e-10
7.5497876e-10
9.9755515e-10
1.2485025e-09
1.502993e-09
1.7688789e-09
2.0224588e-09
2.2867739e-09
6.8398114e-09
5.7698109e-09
4.8917724e-09
4.109614e-09
3.4858931e-09
2.9934899e-09
2.6195271e-09
2.3454277e-09
2.1616741e-09
2.0530621e-09
2.0026924e-09
1.9958569e-09
2.020491e-09
2.0667721e-09
2.126606e-09
2.1933716e-09
2.261673e-09
2.3270699e-09
2.3858261e-09
2.4346137e-09
2.4703634e-09
2.4899801e-09
2.4905256e-09
2.4689005e-09
2.4208615e-09
2.3442663e-09
2.2356946e-09
2.0931006e-09
1.9221787e-09
1.7316828e-09
1.5311155e-09
1.3285146e-09
1.1387253e-09
9.6068065e-10
8.0064463e-10
6.7528911e-10
5.913145e-10
5.3849173e-10
5.3808023e-10
5.6513736e-10
6.162629e-10
6.8549246e-10
7.7081613e-10
8.6994568e-10
9.7817972e-10
1.0976348e-09
2.5730968e-08
2.0161591e-08
1.5715602e-08
1.2382345e-08
9.9118173e-09
8.1232078e-09
6.7958764e-09
5.7683363e-09
4.9228777e-09
4.1891741e-09
3.5850238e-09
3.0991214e-09
2.7158837e-09
2.4243597e-09
2.2127283e-09
2.0688579e-09
1.9810519e-09
1.9383699e-09
1.9311101e-09
1.9505495e-09
1.9887635e-09
2.0385942e-09
2.093714e-09
2.1482918e-09
2.1982332e-09
2.2349591e-09
2.2621198e-09
2.2789229e-09
2.2798199e-09
2.261226e-09
2.2238331e-09
2.1650141e-09
2.0922608e-09
2.0101282e-09
1.9104036e-09
1.8014519e-09
1.7041474e-09
1.6191484e-09
1.5434551e-09
1.4795114e-09
1.4372769e-09
1.4000011e-09
1.3710468e-09
1.3503409e-09
1.3374778e-09
1.3336972e-09
5.3873632e-08
4.6092459e-08
3.843368e-08
3.1553468e-08
2.5592577e-08
2.0640562e-08
1.6648831e-08
1.3580983e-08
1.1231301e-08
9.3630044e-09
7.9303768e-09
6.7863244e-09
5.8535074e-09
5.077854e-09
4.4326586e-09
3.8735658e-09
3.4116381e-09
3.0315633e-09
2.7211576e-09
2.4741413e-09
2.2832067e-09
2.1411953e-09
2.0409025e-09
1.9755234e-09
1.9363326e-09
1.9339052e-09
1.963352e-09
2.0171803e-09
2.0867841e-09
2.1635813e-09
2.2414811e-09
2.3079663e-09
2.3602882e-09
2.3969439e-09
2.4253935e-09
2.4412861e-09
2.4440826e-09
2.4383873e-09
2.4276524e-09
2.4149383e-09
2.3997927e-09
2.3831682e-09
2.365941e-09
2.3489446e-09
2.3326186e-09
2.3191534e-09
7.3860896e-08
6.8089728e-08
6.1406606e-08
5.432164e-08
4.7224794e-08
4.04343e-08
3.4193516e-08
2.8677172e-08
2.3961442e-08
1.9957752e-08
1.6665519e-08
1.3993516e-08
1.1835445e-08
1.0101551e-08
8.6822219e-09
7.5257425e-09
6.5842472e-09
5.8118222e-09
5.1715828e-09
4.6287056e-09
4.1709024e-09
3.7676155e-09
3.4268643e-09
3.1391275e-09
2.8968803e-09
2.6961629e-09
2.5336596e-09
2.4064028e-09
2.3105266e-09
2.2451641e-09
2.2154195e-09
2.2118854e-09
2.2260597e-09
2.2509352e-09
2.2824308e-09
2.3168978e-09
2.3515604e-09
2.3848976e-09
2.4158729e-09
2.4443981e-09
2.4710187e-09
2.4977274e-09
2.5244147e-09
2.5511944e-09
2.5764593e-09
2.6046667e-09
8.2980005e-08
8.0104241e-08
7.6156247e-08
7.1299288e-08
6.5753505e-08
5.9772975e-08
5.3605021e-08
4.7452186e-08
4.1533029e-08
3.6012754e-08
3.1015583e-08
2.6606138e-08
2.2786572e-08
1.9536853e-08
1.6762931e-08
1.443005e-08
1.2490197e-08
1.0883977e-08
9.5622736e-09
8.4735894e-09
7.5777563e-09
6.8306374e-09
6.2059657e-09
5.6825094e-09
5.2425348e-09
4.8727123e-09
4.5623989e-09
4.3000992e-09
4.0863775e-09
3.9066007e-09
3.7705191e-09
3.6698889e-09
3.6016707e-09
3.5627685e-09
3.5495234e-09
3.5588209e-09
3.5850786e-09
3.6253126e-09
3.6780121e-09
3.740131e-09
3.8084579e-09
3.878996e-09
3.9513338e-09
4.0355812e-09
4.1205064e-09
4.2177903e-09
8.5772948e-08
8.4783335e-08
8.3060425e-08
8.0522283e-08
7.7259946e-08
7.3293447e-08
6.876671e-08
6.3837725e-08
5.8663913e-08
5.3371512e-08
4.8102821e-08
4.3006711e-08
3.8213601e-08
3.3810608e-08
2.982579e-08
2.626394e-08
2.3117435e-08
2.0366195e-08
1.7988264e-08
1.5937997e-08
1.4184875e-08
1.2702712e-08
1.1456468e-08
1.0413164e-08
9.541736e-09
8.8167708e-09
8.2239316e-09
7.7452351e-09
7.3630011e-09
7.0664869e-09
6.8465247e-09
6.6963666e-09
6.6108198e-09
6.5855432e-09
6.6162174e-09
6.6940812e-09
6.8199397e-09
6.9903379e-09
7.2009666e-09
7.4472603e-09
7.7247631e-09
8.0278529e-09
8.355217e-09
8.7047543e-09
9.0532843e-09
9.4604583e-09
8.5611741e-08
8.5608114e-08
8.5273768e-08
8.4438529e-08
8.300559e-08
8.094597e-08
7.8276205e-08
7.5078058e-08
7.1502222e-08
6.7550229e-08
6.3400014e-08
5.9101619e-08
5.473501e-08
5.0395515e-08
4.6163359e-08
4.210837e-08
3.8297446e-08
3.4766044e-08
3.1530936e-08
2.8594679e-08
2.5953119e-08
2.3600716e-08
2.1526889e-08
1.9719185e-08
1.816116e-08
1.6831513e-08
1.5711172e-08
1.4788553e-08
1.4050069e-08
1.3487446e-08
1.3090658e-08
1.2852558e-08
1.2768397e-08
1.2835585e-08
1.304799e-08
1.3410729e-08
1.3921466e-08
1.4574698e-08
1.53624e-08
1.6274619e-08
1.7298791e-08
1.8421947e-08
1.9624977e-08
2.0909555e-08
2.2195473e-08
2.3700972e-08
8.475829e-08
8.4943977e-08
8.5125909e-08
8.515086e-08
8.4882935e-08
8.4226477e-08
8.3121919e-08
8.1560123e-08
7.9551084e-08
7.7145969e-08
7.4392049e-08
7.1421405e-08
6.8252452e-08
6.4965569e-08
6.165011e-08
5.8300563e-08
5.4957424e-08
5.1667184e-08
4.8468575e-08
4.5393055e-08
4.2465648e-08
3.9706803e-08
3.7133835e-08
3.4777159e-08
3.2656635e-08
3.0781775e-08
2.9158566e-08
2.7793983e-08
2.6693303e-08
2.5869349e-08
2.5333578e-08
2.5099684e-08
2.5181422e-08
2.5598417e-08
2.6375136e-08
2.7520296e-08
2.9030433e-08
3.0892176e-08
3.3086841e-08
3.5590149e-08
3.8362266e-08
4.1368218e-08
4.4525793e-08
4.7837643e-08
5.1127607e-08
5.483384e-08
8.4156151e-08
8.4159415e-08
8.4302631e-08
8.4509412e-08
8.4685762e-08
8.4737233e-08
8.4582609e-08
8.4162106e-08
8.3436134e-08
8.239959e-08
8.1055207e-08
7.9424782e-08
7.7546918e-08
7.5466819e-08
7.322008e-08
7.0908989e-08
6.8517977e-08
6.6099251e-08
6.368648e-08
6.1314667e-08
5.9011774e-08
5.6805035e-08
5.4688051e-08
5.266812e-08
5.0767714e-08
4.9013882e-08
4.7437354e-08
4.6076225e-08
4.496878e-08
4.4168562e-08
4.3730738e-08
4.3710628e-08
4.4180977e-08
4.5188084e-08
4.6777619e-08
4.89632e-08
5.1821491e-08
5.538551e-08
5.9603409e-08
6.4169986e-08
6.909624e-08
7.4317278e-08
7.9736925e-08
8.531867e-08
9.0819509e-08
9.6777312e-08
8.3922423e-08
8.3717208e-08
8.3645916e-08
8.37003e-08
8.3847907e-08
8.4038697e-08
8.4215587e-08
8.4322069e-08
8.4309269e-08
8.4140595e-08
8.3801376e-08
8.3238101e-08
8.2533155e-08
8.1675315e-08
8.060105e-08
7.9367211e-08
7.8011968e-08
7.6556059e-08
7.5060136e-08
7.3511712e-08
7.1941982e-08
7.0381831e-08
6.885334e-08
6.7378322e-08
6.5978554e-08
6.4676997e-08
6.3502428e-08
6.24811e-08
6.1668534e-08
6.1122034e-08
6.0946597e-08
6.1292942e-08
6.2355061e-08
6.4031387e-08
6.6450815e-08
6.9662895e-08
7.366488e-08
7.8410736e-08
8.3817796e-08
8.9780733e-08
9.6178174e-08
1.0288759e-07
1.0977976e-07
1.1678506e-07
1.2366688e-07
1.308673e-07
8.389054e-08
8.3580576e-08
8.3346937e-08
8.3207098e-08
8.3166441e-08
8.3216406e-08
8.333678e-08
8.3499444e-08
8.3673674e-08
8.3826675e-08
8.3942543e-08
8.396085e-08
8.388804e-08
8.376444e-08
8.3524906e-08
8.3239231e-08
8.2925321e-08
8.2513862e-08
8.2000823e-08
8.1384629e-08
8.0658734e-08
7.9884364e-08
7.9066802e-08
7.8240966e-08
7.7411472e-08
7.6608595e-08
7.5850202e-08
7.5234047e-08
7.4717566e-08
7.4492921e-08
7.4656636e-08
7.5328119e-08
7.6635922e-08
7.8703651e-08
8.162035e-08
8.5427911e-08
9.0114218e-08
9.5615852e-08
1.0182741e-07
1.086145e-07
1.1582859e-07
1.2332328e-07
1.3095569e-07
1.3863177e-07
1.4615538e-07
1.5381085e-07
8.3912232e-08
8.358217e-08
8.3287723e-08
8.3040846e-08
8.2853717e-08
8.2734526e-08
8.268545e-08
8.2702355e-08
8.2776433e-08
8.2894037e-08
8.3043905e-08
8.3207816e-08
8.3366386e-08
8.3519269e-08
8.3628326e-08
8.3676578e-08
8.3717609e-08
8.3736046e-08
8.3801486e-08
8.3933357e-08
8.4040358e-08
8.4101111e-08
8.4100051e-08
8.4033633e-08
8.3911977e-08
8.3735764e-08
8.3538612e-08
8.3364105e-08
8.3282374e-08
8.3396287e-08
8.3886081e-08
8.4739098e-08
8.605566e-08
8.8221903e-08
9.1270882e-08
9.523962e-08
1.0011529e-07
1.05828e-07
1.1226047e-07
1.1926481e-07
1.266799e-07
1.3434978e-07
1.4212721e-07
1.4990599e-07
1.5752806e-07
1.6513312e-07
8.392857e-08
8.360782e-08
8.3311473e-08
8.303991e-08
8.279755e-08
8.259057e-08
8.2424934e-08
8.2304992e-08
8.2232934e-08
8.2208515e-08
8.2229472e-08
8.2293529e-08
8.2395261e-08
8.2529407e-08
8.2689325e-08
8.2862044e-08
8.3046898e-08
8.3235718e-08
8.3409876e-08
8.3590692e-08
8.3772323e-08
8.394231e-08
8.4120821e-08
8.4290592e-08
8.4424015e-08
8.4573897e-08
8.4663425e-08
8.4764551e-08
8.4894409e-08
8.5132144e-08
8.5649698e-08
8.6591633e-08
8.8126745e-08
9.0414946e-08
9.3579394e-08
9.76856e-08
1.0273066e-07
1.0864554e-07
1.153077e-07
1.2256145e-07
1.3023606e-07
1.3816911e-07
1.4620476e-07
1.5423689e-07
1.6210185e-07
1.699395e-07
8.3934432e-08
8.3621558e-08
8.3335744e-08
8.3072189e-08
8.2828792e-08
8.2605637e-08
8.2404408e-08
8.2227692e-08
8.2078343e-08
8.1959124e-08
8.1872136e-08
8.1819365e-08
8.1802568e-08
8.1822419e-08
8.1880024e-08
8.1975593e-08
8.2107237e-08
8.2272884e-08
8.2471636e-08
8.2694851e-08
8.2931918e-08
8.3173467e-08
8.3416266e-08
8.3651333e-08
8.3868078e-08
8.4052064e-08
8.4208301e-08
8.4363876e-08
8.457562e-08
8.4929112e-08
8.5553008e-08
8.6612919e-08
8.8290732e-08
9.0760595e-08
9.4160592e-08
9.8568769e-08
1.0398942e-07
1.103536e-07
1.1753114e-07
1.2535415e-07
1.3363478e-07
1.4219735e-07
1.5086496e-07
1.5953357e-07
1.6799471e-07
1.7648506e-07
8.3936689e-08
8.3625774e-08
8.3345096e-08
8.308986e-08
8.2856418e-08
8.2642138e-08
8.2445437e-08
8.2265742e-08
8.2103327e-08
8.1959182e-08
8.1834802e-08
8.173201e-08
8.1653102e-08
8.1600387e-08
8.1577129e-08
8.158368e-08
8.1633959e-08
8.1680409e-08
8.1809967e-08
8.1968102e-08
8.2149604e-08
8.2357135e-08
8.2581454e-08
8.2809556e-08
8.3030302e-08
8.3235514e-08
8.3429831e-08
8.3638185e-08
8.3916467e-08
8.4359084e-08
8.5104894e-08
8.632906e-08
8.82281e-08
9.099494e-08
9.4788337e-08
9.9704703e-08
1.0575968e-07
1.128851e-07
1.2093934e-07
1.2973445e-07
1.390535e-07
1.4869658e-07
1.5845172e-07
1.6821681e-07
1.7770977e-07
1.8732574e-07
8.3938024e-08
8.3627141e-08
8.3347233e-08
8.3094373e-08
8.2865521e-08
8.2658081e-08
8.2469902e-08
8.2299329e-08
8.2145272e-08
8.2007216e-08
8.1885238e-08
8.1779946e-08
8.1692504e-08
8.1624535e-08
8.1578191e-08
8.1555937e-08
8.1559025e-08
8.1601476e-08
8.1649878e-08
8.1765101e-08
8.1889109e-08
8.2040695e-08
8.2214423e-08
8.2401464e-08
8.2593875e-08
8.2788532e-08
8.2993997e-08
8.3239739e-08
8.3586712e-08
8.4136817e-08
8.5039612e-08
8.6485719e-08
8.8693358e-08
9.1883026e-08
9.6244045e-08
1.0190081e-07
1.0888715e-07
1.1713727e-07
1.264931e-07
1.3673468e-07
1.4759731e-07
1.5884171e-07
1.7019873e-07
1.8156199e-07
1.9252849e-07
2.0373698e-07
8.3937502e-08
8.3626993e-08
8.3347204e-08
8.3094487e-08
8.2866244e-08
8.2660344e-08
8.2474998e-08
8.230874e-08
8.2160435e-08
8.2029332e-08
8.1915088e-08
8.1817792e-08
8.1737988e-08
8.1676693e-08
8.1635247e-08
8.1615738e-08
8.1619025e-08
8.1649982e-08
8.1707723e-08
8.1793701e-08
8.1910741e-08
8.204595e-08
8.2203787e-08
8.2378091e-08
8.2565176e-08
8.2766978e-08
8.2997998e-08
8.3294713e-08
8.3726588e-08
8.4406745e-08
8.5498265e-08
8.7213604e-08
8.9801552e-08
9.3522085e-08
9.8609316e-08
1.0523099e-07
1.1345187e-07
1.2321675e-07
1.3434902e-07
1.465843e-07
1.5959364e-07
1.7308111e-07
1.8667587e-07
2.0026117e-07
2.1327929e-07
2.2678714e-07
8.3934701e-08
8.3624716e-08
8.3345337e-08
8.3092822e-08
8.2864599e-08
8.2658672e-08
8.2473445e-08
8.2307667e-08
8.2160426e-08
8.2031149e-08
8.1919615e-08
8.182597e-08
8.1750752e-08
8.1694892e-08
8.1659668e-08
8.1646701e-08
8.1657769e-08
8.1694163e-08
8.1759044e-08
8.1847948e-08
8.1979078e-08
8.2114174e-08
8.2281975e-08
8.2469456e-08
8.2676273e-08
8.2908602e-08
8.3186387e-08
8.3553136e-08
8.4087737e-08
8.4916322e-08
8.6220495e-08
8.8241068e-08
9.1267152e-08
9.5612787e-08
1.0157621e-07
1.093913e-07
1.1917827e-07
1.3091144e-07
1.4439768e-07
1.5933375e-07
1.7530568e-07
1.9189833e-07
2.085805e-07
2.2532674e-07
2.4138421e-07
2.5824165e-07
8.3931637e-08
8.362165e-08
8.3342345e-08
8.3089955e-08
8.286183e-08
8.2655913e-08
8.247059e-08
8.2304639e-08
8.2157201e-08
8.2027787e-08
8.1916274e-08
8.1822912e-08
8.1748344e-08
8.1693595e-08
8.1660051e-08
8.1649392e-08
8.1663488e-08
8.170419e-08
8.1772471e-08
8.1872532e-08
8.199938e-08
8.2149606e-08
8.2333742e-08
8.254122e-08
8.2775381e-08
8.3046472e-08
8.3379508e-08
8.3824866e-08
8.447115e-08
8.5458944e-08
8.6991876e-08
8.9345016e-08
9.2857347e-08
9.7913838e-08
1.0490002e-07
1.1414783e-07
1.2587614e-07
1.4010656e-07
1.5668086e-07
1.7527985e-07
1.9530034e-07
2.1618897e-07
2.3741583e-07
2.5910444e-07
2.7950384e-07
3.0062883e-07
8.3930075e-08
8.3619737e-08
8.3340147e-08
8.3087547e-08
8.2859283e-08
8.2653271e-08
8.2467862e-08
8.2301797e-08
8.2154199e-08
8.2024568e-08
8.1912783e-08
8.1819112e-08
8.1744226e-08
8.1689186e-08
8.1655425e-08
8.1644711e-08
8.1658953e-08
8.1700429e-08
8.1769387e-08
8.1874916e-08
8.2008434e-08
8.2161934e-08
8.2353813e-08
8.257712e-08
8.2836194e-08
8.3144499e-08
8.3531852e-08
8.4055532e-08
8.4814208e-08
8.5963911e-08
8.7732557e-08
9.0434311e-08
9.4466008e-08
1.0030224e-07
1.0843695e-07
1.1935314e-07
1.3340354e-07
1.5071037e-07
1.7131415e-07
1.946951e-07
2.2012607e-07
2.4734415e-07
2.7560691e-07
3.0387034e-07
3.2869332e-07
3.5610733e-07
8.3929245e-08
8.361876e-08
8.3338985e-08
8.3086205e-08
8.2857766e-08
8.2651586e-08
8.2466012e-08
8.2299792e-08
8.2152034e-08
8.2022233e-08
8.1910264e-08
8.1816385e-08
8.1741259e-08
8.1685958e-08
8.1651868e-08
8.1640996e-08
8.1654355e-08
8.1698353e-08
8.1756239e-08
8.1868629e-08
8.2002794e-08
8.2165428e-08
8.2367136e-08
8.2603581e-08
8.2883574e-08
8.3224574e-08
8.3661311e-08
8.4258063e-08
8.5123677e-08
8.6430199e-08
8.8430646e-08
9.1481284e-08
9.6042604e-08
1.0269592e-07
1.120627e-07
1.2485e-07
1.415254e-07
1.6259729e-07
1.8817232e-07
2.1742133e-07
2.5063037e-07
2.8725601e-07
3.2398141e-07
3.5894994e-07
3.9219242e-07
4.3512501e-07
8.3927409e-08
8.361702e-08
8.3337345e-08
8.3084625e-08
8.2856213e-08
8.2650027e-08
8.2464415e-08
8.2298114e-08
8.2150246e-08
8.2020306e-08
8.1908174e-08
8.181412e-08
8.1738815e-08
8.1683337e-08
8.1649101e-08
8.1638031e-08
8.1651718e-08
8.1693788e-08
8.1762112e-08
8.1869589e-08
8.2003731e-08
8.2168429e-08
8.2375435e-08
8.2623524e-08
8.2922629e-08
8.3293265e-08
8.3774717e-08
8.4438045e-08
8.5401976e-08
8.6854176e-08
8.9072852e-08
9.2457501e-08
9.753471e-08
1.0500541e-07
1.1564167e-07
1.3041083e-07
1.4996658e-07
1.7552142e-07
2.0642996e-07
2.4361121e-07
2.8785347e-07
3.3468886e-07
3.7967676e-07
4.3031578e-07
4.8844338e-07
5.5450486e-07
8.3924518e-08
8.3614202e-08
8.3334633e-08
8.308206e-08
8.2853798e-08
8.2647743e-08
8.2462226e-08
8.2295982e-08
8.2148116e-08
8.2018124e-08
8.1905891e-08
8.1811691e-08
8.1736209e-08
8.168054e-08
8.1646115e-08
8.1634957e-08
8.164834e-08
8.1692041e-08
8.1752764e-08
8.1866149e-08
8.2003225e-08
8.2174065e-08
8.2387663e-08
8.2645643e-08
8.2960857e-08
8.3356985e-08
8.3877349e-08
8.4599141e-08
8.5650268e-08
8.7232966e-08
8.9649265e-08
9.3343196e-08
9.8898432e-08
1.0716646e-07
1.1902794e-07
1.3582094e-07
1.5852463e-07
1.8864976e-07
2.2543173e-07
2.7425042e-07
3.2872467e-07
3.853582e-07
4.4987953e-07
5.4090892e-07
6.267327e-07
7.1076956e-07
8.392142e-08
8.3611058e-08
8.3331511e-08
8.3078998e-08
8.2850835e-08
8.2644908e-08
8.2459531e-08
8.2293409e-08
8.2145637e-08
8.2015695e-08
8.1903454e-08
8.1809189e-08
8.1733588e-08
8.1677756e-08
8.1643156e-08
8.1631768e-08
8.1645346e-08
8.1687536e-08
8.1756779e-08
8.1866045e-08
8.2001065e-08
8.2175382e-08
8.2394674e-08
8.2662407e-08
8.2992716e-08
8.3411797e-08
8.3966584e-08
8.4739651e-08
8.5866933e-08
8.7563835e-08
9.0153232e-08
9.4125782e-08
1.0010108e-07
1.0914398e-07
1.2204848e-07
1.4107741e-07
1.6662632e-07
2.0109872e-07
2.4609429e-07
3.0692144e-07
3.66901e-07
4.4685818e-07
5.5382027e-07
6.8998984e-07
7.7475253e-07
9.1706533e-07
8.3918488e-08
8.3608071e-08
8.3328492e-08
8.3076006e-08
8.2847911e-08
8.2642085e-08
8.2456826e-08
8.2290838e-08
8.2143189e-08
8.2013342e-08
8.1901158e-08
8.1806892e-08
8.1731223e-08
8.1675259e-08
8.164046e-08
8.1628912e-08
8.1642e-08
8.1685629e-08
8.1746836e-08
8.1867037e-08
8.2001219e-08
8.2178573e-08
8.2401553e-08
8.2676435e-08
8.3019149e-08
8.3457342e-08
8.4040765e-08
8.4857113e-08
8.6049444e-08
8.7844459e-08
9.0583145e-08
9.479859e-08
1.0114319e-07
1.1088579e-07
1.2466785e-07
1.4616357e-07
1.7325475e-07
2.1379427e-07
2.677726e-07
3.3512056e-07
4.0700735e-07
5.3502696e-07
6.8218753e-07
8.3579041e-07
9.3076909e-07
1.265183e-06
8.3915558e-08
8.3605162e-08
8.332561e-08
8.3073143e-08
8.2845098e-08
8.2639366e-08
8.2454248e-08
8.2288425e-08
8.2140962e-08
8.2011299e-08
8.1899276e-08
8.1805138e-08
8.172955e-08
8.1673614e-08
8.1638778e-08
8.1627164e-08
8.1640146e-08
8.168341e-08
8.174796e-08
8.1877126e-08
8.1998778e-08
8.2178816e-08
8.2405725e-08
8.2687423e-08
8.3040329e-08
8.3495645e-08
8.4104267e-08
8.4956873e-08
8.6203056e-08
8.8079126e-08
9.0943517e-08
9.5355564e-08
1.0203902e-07
1.1231102e-07
1.2709218e-07
1.5044671e-07
1.7863009e-07
2.2797411e-07
2.8562756e-07
3.5922727e-07
4.6238617e-07
6.4063925e-07
7.9689224e-07
9.6836437e-07
1.156596e-06
1.7980656e-06
8.3912327e-08
8.360211e-08
8.3322692e-08
8.3070329e-08
8.2842364e-08
8.2636714e-08
8.2451697e-08
8.2286012e-08
8.2138703e-08
8.2009205e-08
8.189734e-08
8.1803332e-08
8.1727832e-08
8.1671934e-08
8.163708e-08
8.1625443e-08
8.1638179e-08
8.1682444e-08
8.1740564e-08
8.1882596e-08
8.1998415e-08
8.2180655e-08
8.241025e-08
8.2696892e-08
8.3058816e-08
8.3524389e-08
8.4153434e-08
8.503797e-08
8.6330902e-08
8.8276353e-08
9.124817e-08
9.5830004e-08
1.0281208e-07
1.134734e-07
1.2936421e-07
1.5328196e-07
1.8474975e-07
2.4137154e-07
2.9719821e-07
3.8812742e-07
5.3113329e-07
7.3463086e-07
8.8590839e-07
1.1296412e-06
1.5031418e-06
2.3609191e-06
8.3908369e-08
8.3598521e-08
8.3319421e-08
8.306729e-08
8.2839498e-08
8.2633995e-08
8.2449132e-08
8.2283624e-08
8.2136539e-08
8.2007302e-08
8.1895725e-08
8.1802022e-08
8.1726827e-08
8.1671219e-08
8.1636628e-08
8.1625215e-08
8.1638201e-08
8.1682158e-08
8.1744559e-08
8.1882589e-08
8.1998818e-08
8.2183638e-08
8.2416076e-08
8.270673e-08
8.3076233e-08
8.3549665e-08
8.4191544e-08
8.5099111e-08
8.6428489e-08
8.8427809e-08
9.1480272e-08
9.6180714e-08
1.0338245e-07
1.144501e-07
1.3108173e-07
1.5541205e-07
1.9249577e-07
2.5013298e-07
3.0695743e-07
4.2496009e-07
5.9687744e-07
8.0368344e-07
9.7110631e-07
1.3554164e-06
2.0193994e-06
2.7073156e-06
8.390359e-08
8.35943e-08
8.3315685e-08
8.3063931e-08
8.2836398e-08
8.2631059e-08
8.244629e-08
8.2280844e-08
8.21338e-08
8.2004607e-08
8.1893078e-08
8.1799417e-08
8.1724257e-08
8.1668682e-08
8.1634124e-08
8.1622758e-08
8.1635824e-08
8.168018e-08
8.1740129e-08
8.188204e-08
8.1998789e-08
8.2184708e-08
8.2419509e-08
8.2714525e-08
8.3089316e-08
8.358038e-08
8.4237454e-08
8.5163293e-08
8.6522179e-08
8.8571247e-08
9.1712294e-08
9.6546306e-08
1.0403814e-07
1.1525038e-07
1.323207e-07
1.5836698e-07
1.9991573e-07
2.5375848e-07
3.2022261e-07
4.6314846e-07
6.4919026e-07
8.5444778e-07
1.0731729e-06
1.6495815e-06
2.69329e-06
2.727254e-06
8.3898129e-08
8.3589385e-08
8.3311358e-08
8.306014e-08
8.2833064e-08
8.2628102e-08
8.2443658e-08
8.2278517e-08
8.2131801e-08
8.2002977e-08
8.1891872e-08
8.1798696e-08
8.172407e-08
8.166905e-08
8.1635058e-08
8.1624215e-08
8.1637814e-08
8.1682167e-08
8.1745718e-08
8.1880711e-08
8.2002894e-08
8.219043e-08
8.2426237e-08
8.2723327e-08