/*--------------------------------*- C++ -*----------------------------------*\
| =========                 |                                                 |
| \\      /  F ield         | OpenFOAM: The Open Source CFD Toolbox           |
|  \\    /   O peration     | Version:  v2006                                 |
|   \\  /    A nd           | Website:  www.openfoam.com                      |
|    \\/     M anipulation  |                                                 |
\*---------------------------------------------------------------------------*/
FoamFile
{
    version     2.0;
    format      ascii;
    class       volScalarField;
    location    "6000";
    object      nutMean;
}
// * * * * * * * * * * * * * * * * * * * * * * * * * * * * * * * * * * * * * //

dimensions      [0 2 -1 0 0 0 0];


internalField   nonuniform List<scalar> 
21256
(
2.299505e-09
1.487484e-08
6.143632e-08
8.793852e-08
9.5389999e-08
9.5134136e-08
9.4001459e-08
9.3471371e-08
9.335745e-08
9.3368273e-08
9.3386624e-08
9.3392766e-08
9.3393359e-08
9.3392823e-08
9.3394098e-08
9.3396524e-08
9.3398401e-08
9.3397871e-08
9.3396129e-08
9.3394991e-08
9.3394178e-08
9.3393121e-08
9.3391753e-08
9.3390101e-08
9.3387444e-08
9.3384011e-08
9.3380507e-08
9.3377308e-08
9.3374248e-08
9.3371013e-08
9.3367524e-08
9.3363259e-08
9.3357314e-08
9.335104e-08
9.334584e-08
9.3340538e-08
3.2511291e-09
2.1718306e-08
7.1592254e-08
9.2948813e-08
9.7103825e-08
9.6225401e-08
9.5303427e-08
9.4977366e-08
9.4936376e-08
9.4955278e-08
9.4967638e-08
9.4970067e-08
9.4969072e-08
9.4967618e-08
9.4968723e-08
9.4970867e-08
9.4972318e-08
9.4970834e-08
9.4968302e-08
9.4966647e-08
9.4965403e-08
9.4963845e-08
9.4961956e-08
9.4960041e-08
9.4957102e-08
9.4953233e-08
9.4949158e-08
9.4945418e-08
9.4941877e-08
9.4938133e-08
9.4934154e-08
9.4929623e-08
9.4923123e-08
9.4915684e-08
9.4909593e-08
9.4902736e-08
4.8394411e-09
3.0265673e-08
8.0766567e-08
9.6672521e-08
9.86014e-08
9.7521388e-08
9.6840347e-08
9.6665946e-08
9.6665206e-08
9.6683081e-08
9.6689654e-08
9.668918e-08
9.6687015e-08
9.6684916e-08
9.6685789e-08
9.6687739e-08
9.6688697e-08
9.6686297e-08
9.6682991e-08
9.6680884e-08
9.6679332e-08
9.6677339e-08
9.6674965e-08
9.6672867e-08
9.6669848e-08
9.6665708e-08
9.6661193e-08
9.6657018e-08
9.665319e-08
9.6649102e-08
9.6644755e-08
9.6640204e-08
9.6633559e-08
9.6625138e-08
9.6618488e-08
9.6610577e-08
7.2802368e-09
4.082834e-08
8.895362e-08
9.9798821e-08
1.0011393e-07
9.906172e-08
9.8625412e-08
9.8556396e-08
9.8571212e-08
9.8582885e-08
9.8584471e-08
9.8582268e-08
9.8579466e-08
9.8576909e-08
9.8577525e-08
9.8579326e-08
9.8579855e-08
9.8576563e-08
9.8572553e-08
9.8570126e-08
9.856841e-08
9.8566109e-08
9.8563335e-08
9.8561112e-08
9.8558252e-08
9.8554076e-08
9.8549317e-08
9.8544842e-08
9.8540975e-08
9.8536821e-08
9.8532265e-08
9.8527954e-08
9.8521714e-08
9.8512562e-08
9.8505823e-08
9.849727e-08
1.0994586e-08
5.3229244e-08
9.5362782e-08
1.0241139e-07
1.017518e-07
1.0090882e-07
1.0068146e-07
1.0066959e-07
1.006827e-07
1.0068751e-07
1.0068658e-07
1.0068332e-07
1.0067991e-07
1.0067701e-07
1.0067742e-07
1.0067925e-07
1.0067937e-07
1.0067521e-07
1.0067054e-07
1.0066799e-07
1.0066633e-07
1.0066392e-07
1.0066089e-07
1.006586e-07
1.0065617e-07
1.0065231e-07
1.0064762e-07
1.0064303e-07
1.0063941e-07
1.0063568e-07
1.0063114e-07
1.006274e-07
1.0062229e-07
1.0061284e-07
1.0060663e-07
1.0059808e-07
1.6540424e-08
6.7067126e-08
9.9340588e-08
1.045656e-07
1.0363829e-07
1.0311318e-07
1.0302978e-07
1.0303729e-07
1.0304214e-07
1.0304311e-07
1.0304065e-07
1.0303627e-07
1.0303241e-07
1.0302934e-07
1.0302962e-07
1.0303168e-07
1.0303157e-07
1.0302649e-07
1.0302124e-07
1.0301882e-07
1.0301754e-07
1.0301536e-07
1.0301228e-07
1.0300999e-07
1.0300831e-07
1.0300521e-07
1.0300107e-07
1.0299667e-07
1.0299351e-07
1.0299096e-07
1.0298678e-07
1.0298401e-07
1.0298082e-07
1.0297183e-07
1.0296688e-07
1.0295921e-07
2.4680674e-08
8.1728163e-08
1.0462768e-07
1.0656985e-07
1.0591374e-07
1.0571266e-07
1.0570107e-07
1.0570453e-07
1.057038e-07
1.0570375e-07
1.0569981e-07
1.0569449e-07
1.0569044e-07
1.0568746e-07
1.0568751e-07
1.0569033e-07
1.0569025e-07
1.0568413e-07
1.0567851e-07
1.0567654e-07
1.0567605e-07
1.0567463e-07
1.0567184e-07
1.0566961e-07
1.0566894e-07
1.0566717e-07
1.056642e-07
1.0566046e-07
1.0565786e-07
1.0565718e-07
1.0565405e-07
1.0565277e-07
1.0565198e-07
1.0564485e-07
1.0564188e-07
1.0563618e-07
3.6033264e-08
9.6499899e-08
1.0868484e-07
1.0904862e-07
1.0877097e-07
1.0872536e-07
1.0872735e-07
1.0872419e-07
1.0872198e-07
1.0872191e-07
1.0871666e-07
1.0871114e-07
1.0870747e-07
1.0870482e-07
1.0870438e-07
1.0870854e-07
1.0870881e-07
1.0870176e-07
1.0869645e-07
1.0869526e-07
1.0869585e-07
1.0869587e-07
1.0869387e-07
1.0869182e-07
1.0869228e-07
1.0869228e-07
1.086911e-07
1.0868867e-07
1.0868731e-07
1.0868737e-07
1.0868662e-07
1.0868753e-07
1.0868849e-07
1.0868551e-07
1.0868521e-07
1.0868248e-07
5.0910004e-08
1.103445e-07
1.1231627e-07
1.121425e-07
1.1210674e-07
1.1210779e-07
1.1210648e-07
1.1210241e-07
1.1210095e-07
1.1210086e-07
1.1209596e-07
1.1209198e-07
1.1208964e-07
1.1208787e-07
1.1208705e-07
1.1209129e-07
1.120917e-07
1.1208568e-07
1.1208259e-07
1.1208238e-07
1.1208374e-07
1.1208495e-07
1.1208451e-07
1.1208329e-07
1.1208468e-07
1.1208635e-07
1.1208727e-07
1.1208689e-07
1.1208732e-07
1.12089e-07
1.1209078e-07
1.1209193e-07
1.1209595e-07
1.1209649e-07
1.1209865e-07
1.1209974e-07
8.4326689e-08
8.4327587e-08
8.4329769e-08
8.4335199e-08
8.4340438e-08
8.4345798e-08
8.4350779e-08
8.4355184e-08
8.4359157e-08
8.4362811e-08
8.4366387e-08
8.4370112e-08
8.4373818e-08
8.4377021e-08
8.4379384e-08
8.4380911e-08
8.4381853e-08
8.4382612e-08
8.4382906e-08
8.438201e-08
8.4380364e-08
8.4378552e-08
8.4372894e-08
8.4355506e-08
8.4338138e-08
8.4410469e-08
8.4771329e-08
8.5564424e-08
8.6349348e-08
8.5297088e-08
7.8913562e-08
6.1740563e-08
3.2843941e-08
8.5987735e-09
1.9102953e-09
2.285576e-09
8.4904642e-08
8.4906819e-08
8.4911236e-08
8.49164e-08
8.4921878e-08
8.4927254e-08
8.4932122e-08
8.4936387e-08
8.4940231e-08
8.494381e-08
8.4947379e-08
8.4951117e-08
8.4954793e-08
8.4957915e-08
8.4960183e-08
8.4961638e-08
8.4962547e-08
8.4963283e-08
8.4963559e-08
8.496267e-08
8.4960885e-08
8.4958355e-08
8.4951878e-08
8.493663e-08
8.4926242e-08
8.4998767e-08
8.5325429e-08
8.6047808e-08
8.6842744e-08
8.6147976e-08
8.0456344e-08
6.5154769e-08
3.6871147e-08
1.0308598e-08
1.8837317e-09
1.9103739e-09
8.5555887e-08
8.5559118e-08
8.556415e-08
8.5569459e-08
8.5575087e-08
8.558055e-08
8.5585384e-08
8.5589574e-08
8.5593347e-08
8.5596881e-08
8.5600439e-08
8.5604167e-08
8.5607796e-08
8.561083e-08
8.5613006e-08
8.56144e-08
8.5615279e-08
8.5616033e-08
8.5616395e-08
8.5615544e-08
8.5613762e-08
8.5611809e-08
8.5607439e-08
8.559431e-08
8.5575486e-08
8.5605901e-08
8.5841864e-08
8.647812e-08
8.7389577e-08
8.7374726e-08
8.3272678e-08
7.0070075e-08
4.2653912e-08
1.2852341e-08
2.0371276e-09
1.6581655e-09
8.6288786e-08
8.6292951e-08
8.6298291e-08
8.6303756e-08
8.630951e-08
8.6314986e-08
8.6319704e-08
8.6323755e-08
8.632741e-08
8.6330863e-08
8.6334385e-08
8.6338077e-08
8.6341623e-08
8.6344527e-08
8.6346577e-08
8.6347887e-08
8.6348723e-08
8.6349485e-08
8.6349924e-08
8.6349123e-08
8.6347269e-08
8.6345364e-08
8.6342114e-08
8.6332e-08
8.631337e-08
8.6321731e-08
8.6484966e-08
8.7010028e-08
8.7919151e-08
8.8349496e-08
8.5549942e-08
7.4612072e-08
4.8777908e-08
1.6187197e-08
2.3866316e-09
1.4748822e-09
8.7117949e-08
8.7122768e-08
8.7128268e-08
8.7133879e-08
8.7139732e-08
8.7145164e-08
8.7149706e-08
8.715358e-08
8.7157087e-08
8.7160435e-08
8.7163893e-08
8.7167516e-08
8.7170937e-08
8.717367e-08
8.7175562e-08
8.7176771e-08
8.7177554e-08
8.7178325e-08
8.717886e-08
8.7178135e-08
8.717623e-08
8.7174383e-08
8.7172111e-08
8.716472e-08
8.7147235e-08
8.7138454e-08
8.7236055e-08
8.7642271e-08
8.849717e-08
8.9277529e-08
8.7694056e-08
7.9011325e-08
5.5472274e-08
2.0576912e-08
2.9363427e-09
1.3625149e-09
8.8060992e-08
8.8066234e-08
8.8071854e-08
8.8077584e-08
8.8083492e-08
8.8088794e-08
8.8093075e-08
8.8096714e-08
8.8100023e-08
8.8103221e-08
8.8106574e-08
8.811008e-08
8.811332e-08
8.8115823e-08
8.8117515e-08
8.8118599e-08
8.811931e-08
8.8120087e-08
8.8120736e-08
8.8120116e-08
8.8118162e-08
8.8116267e-08
8.8114664e-08
8.8109857e-08
8.8095714e-08
8.8078163e-08
8.8123526e-08
8.8409263e-08
8.9147828e-08
9.012566e-08
8.9587999e-08
8.2707014e-08
6.2522881e-08
2.6091708e-08
3.7155932e-09
1.3177141e-09
8.9140444e-08
8.9145972e-08
8.9151637e-08
8.9157453e-08
8.916335e-08
8.9168403e-08
8.9172323e-08
8.9175659e-08
8.9178705e-08
8.9181694e-08
8.9184883e-08
8.9188208e-08
8.9191189e-08
8.9193386e-08
8.9194826e-08
8.9195759e-08
8.9196376e-08
8.9197155e-08
8.9197945e-08
8.9197471e-08
8.9195488e-08
8.9193505e-08
8.9192318e-08
8.9189637e-08
8.9179598e-08
8.915981e-08
8.9168084e-08
8.9343986e-08
8.992641e-08
9.0938704e-08
9.120791e-08
8.6656518e-08
6.9726082e-08
3.3067226e-08
4.9560103e-09
1.3528974e-09
9.0384392e-08
9.0390129e-08
9.0395753e-08
9.0401616e-08
9.0407412e-08
9.041207e-08
9.0415524e-08
9.0418484e-08
9.0421194e-08
9.0423905e-08
9.0426864e-08
9.0429931e-08
9.0432557e-08
9.0434348e-08
9.0435491e-08
9.043624e-08
9.0436744e-08
9.0437516e-08
9.0438486e-08
9.0438211e-08
9.0436231e-08
9.0434131e-08
9.0433147e-08
9.043207e-08
9.0426215e-08
9.0409224e-08
9.0396163e-08
9.0481459e-08
9.0892015e-08
9.182384e-08
9.2629224e-08
9.0047453e-08
7.6859135e-08
4.1584864e-08
6.90559e-09
1.4832694e-09
9.1825264e-08
9.1831132e-08
9.1836615e-08
9.1842504e-08
9.1848107e-08
9.1852223e-08
9.1855171e-08
9.1857732e-08
9.1860073e-08
9.1862479e-08
9.1865182e-08
9.1867942e-08
9.1870138e-08
9.1871435e-08
9.1872287e-08
9.1872845e-08
9.1873239e-08
9.1874001e-08
9.18752e-08
9.1875215e-08
9.1873259e-08
9.1871024e-08
9.1870066e-08
9.1870121e-08
9.1867695e-08
9.1856474e-08
9.1835933e-08
9.1857375e-08
9.2099487e-08
9.2852191e-08
9.3953572e-08
9.3032914e-08
8.3493029e-08
5.1556866e-08
1.0387378e-08
1.7438131e-09
2.5608836e-09
2.6611981e-09
2.7591267e-09
2.8467195e-09
2.9252341e-09
2.9956284e-09
3.0592893e-09
3.1164332e-09
3.1681518e-09
3.2126248e-09
3.2515325e-09
3.2894606e-09
3.3272393e-09
3.3631658e-09
3.3943708e-09
3.4175037e-09
3.4287811e-09
3.4239826e-09
3.398412e-09
3.3469744e-09
3.2644144e-09
3.1454098e-09
2.9859755e-09
2.7835981e-09
2.5407107e-09
2.2641822e-09
1.959361e-09
1.635693e-09
1.3046398e-09
9.7042541e-10
6.6661306e-10
4.080134e-10
2.1580481e-10
1.1996626e-10
9.5786355e-11
1.4446059e-10
2.7608173e-10
4.9042599e-10
7.6250775e-10
1.06623e-09
1.3734211e-09
1.6781877e-09
1.9761823e-09
2.2874514e-09
2.5523015e-09
2.8566128e-09
1.9441678e-09
1.9830045e-09
2.0309595e-09
2.1085314e-09
2.2041144e-09
2.3069754e-09
2.4100485e-09
2.5079339e-09
2.5981722e-09
2.6782928e-09
2.7467516e-09
2.8053809e-09
2.85706e-09
2.9039188e-09
2.9467264e-09
2.9849653e-09
3.0170331e-09
3.0404112e-09
3.051782e-09
3.0470956e-09
3.0217974e-09
2.9707111e-09
2.8889445e-09
2.771012e-09
2.6081812e-09
2.3985366e-09
2.1490452e-09
1.8700787e-09
1.5757631e-09
1.2797532e-09
9.9408923e-10
7.4875705e-10
5.2837003e-10
3.5758954e-10
2.3762725e-10
1.9299709e-10
2.0724575e-10
2.7997956e-10
4.0317942e-10
5.6648699e-10
7.5500995e-10
9.5784425e-10
1.16726e-09
1.3887875e-09
1.6012459e-09
1.8298783e-09
6.8299318e-09
5.7725798e-09
4.8932203e-09
4.1259589e-09
3.5124952e-09
3.0331655e-09
2.6742208e-09
2.4182566e-09
2.2540635e-09
2.1658709e-09
2.1362961e-09
2.1500988e-09
2.1949315e-09
2.2607998e-09
2.3395945e-09
2.4248049e-09
2.5112138e-09
2.5945874e-09
2.6713732e-09
2.7383939e-09
2.7926356e-09
2.8310041e-09
2.8503269e-09
2.8473967e-09
2.817955e-09
2.7586505e-09
2.666093e-09
2.536563e-09
2.3723216e-09
2.1812928e-09
1.9732176e-09
1.7560626e-09
1.5436732e-09
1.3411469e-09
1.1516381e-09
9.8877429e-10
8.6055384e-10
7.6169332e-10
7.1043914e-10
6.9119255e-10
6.9936381e-10
7.2861168e-10
7.7518615e-10
8.3691761e-10
9.0951896e-10
9.9442745e-10
2.5589105e-08
2.0055172e-08
1.5642754e-08
1.2344617e-08
9.9061818e-09
8.1466213e-09
6.837732e-09
5.8127729e-09
4.9665551e-09
4.2308846e-09
3.6317524e-09
3.1520554e-09
2.7787238e-09
2.50089e-09
2.3057128e-09
2.1804385e-09
2.1129148e-09
2.0918492e-09
2.1072676e-09
2.1502041e-09
2.2125441e-09
2.2870069e-09
2.367131e-09
2.4470691e-09
2.5221472e-09
2.5839403e-09
2.6303159e-09
2.667859e-09
2.6910535e-09
2.6946007e-09
2.6770653e-09
2.6365294e-09
2.5770332e-09
2.502995e-09
2.414025e-09
2.3084596e-09
2.2059735e-09
2.1106148e-09
2.0230101e-09
1.9437172e-09
1.8802085e-09
1.8254634e-09
1.7792994e-09
1.7413442e-09
1.7107823e-09
1.6898872e-09
5.3737556e-08
4.5935648e-08
3.8275564e-08
3.1408806e-08
2.5464208e-08
2.0533959e-08
1.6588384e-08
1.3558541e-08
1.1223871e-08
9.3915716e-09
7.9821201e-09
6.848827e-09
5.918674e-09
5.1399073e-09
4.4867439e-09
3.9245462e-09
3.4637708e-09
3.087283e-09
2.7843225e-09
2.5483342e-09
2.3715197e-09
2.2462552e-09
2.1649662e-09
2.1203967e-09
2.106159e-09
2.1326009e-09
2.1911881e-09
2.2746978e-09
2.3750971e-09
2.4837968e-09
2.5918203e-09
2.6875304e-09
2.767506e-09
2.8303589e-09
2.879969e-09
2.9168349e-09
2.9397523e-09
2.9513476e-09
2.9550478e-09
2.9531312e-09
2.9469125e-09
2.9374795e-09
2.9259296e-09
2.9133399e-09
2.9001019e-09
2.8882879e-09
7.3809745e-08
6.7998748e-08
6.1276607e-08
5.4161681e-08
4.7046661e-08
4.0246827e-08
3.4013904e-08
2.8525205e-08
2.3821104e-08
1.9848293e-08
1.659486e-08
1.3959409e-08
1.1835648e-08
1.0123994e-08
8.7211401e-09
7.5789295e-09
6.6443177e-09
5.8726728e-09
5.2280579e-09
4.6795306e-09
4.2125052e-09
3.8052444e-09
3.4627755e-09
3.1746366e-09
2.9344849e-09
2.7385473e-09
2.5834867e-09
2.4659513e-09
2.3831293e-09
2.3369786e-09
2.3286964e-09
2.3479099e-09
2.3852705e-09
2.4331508e-09
2.4862522e-09
2.5408552e-09
2.5939887e-09
2.6439931e-09
2.6897527e-09
2.7311188e-09
2.7683317e-09
2.8031463e-09
2.8361467e-09
2.867766e-09
2.8974376e-09
2.9269058e-09
8.2986139e-08
8.0085439e-08
7.61048e-08
7.1211489e-08
6.5620891e-08
5.9603494e-08
5.340786e-08
4.7240537e-08
4.1312987e-08
3.5793229e-08
3.0808547e-08
2.6421846e-08
2.2633501e-08
1.9407018e-08
1.6661378e-08
1.4360341e-08
1.2449263e-08
1.0867262e-08
9.5651629e-09
8.4917809e-09
7.6021813e-09
6.8587293e-09
6.2342328e-09
5.7079184e-09
5.2629118e-09
4.8861756e-09
4.5668329e-09
4.2970017e-09
4.0721866e-09
3.8866734e-09
3.7435718e-09
3.6367459e-09
3.5629615e-09
3.5188074e-09
3.5006484e-09
3.5051564e-09
3.5275579e-09
3.5640798e-09
3.6129051e-09
3.6714455e-09
3.7369359e-09
3.8066906e-09
3.8777205e-09
3.9543524e-09
4.0311381e-09
4.1194964e-09
8.5797159e-08
8.4800102e-08
8.3061942e-08
8.0495527e-08
7.7215682e-08
7.3210952e-08
6.8631398e-08
6.366485e-08
5.8464191e-08
5.3145996e-08
4.7852582e-08
4.2738195e-08
3.7939513e-08
3.3539191e-08
2.9563978e-08
2.6018452e-08
2.2893001e-08
2.0165163e-08
1.780688e-08
1.5777615e-08
1.4046599e-08
1.2584378e-08
1.1354391e-08
1.0323092e-08
9.4604375e-09
8.7431306e-09
8.15336e-09
7.6722507e-09
7.2824512e-09
6.9752134e-09
6.7416931e-09
6.5755031e-09
6.4715647e-09
6.4248548e-09
6.4309876e-09
6.4820864e-09
6.5766357e-09
6.7119329e-09
6.8841223e-09
7.0888971e-09
7.3217709e-09
7.5781878e-09
7.8538421e-09
8.148539e-09
8.4433924e-09
8.7893216e-09
8.5633475e-08
8.5631991e-08
8.5295736e-08
8.4450272e-08
8.300262e-08
8.0920152e-08
7.8221305e-08
7.5001191e-08
7.135376e-08
6.7364603e-08
6.3190347e-08
5.8858866e-08
5.4455892e-08
5.0082355e-08
4.5821239e-08
4.1744909e-08
3.7921777e-08
3.4384673e-08
3.1147465e-08
2.8211907e-08
2.5574204e-08
2.3227832e-08
2.1160831e-08
1.9358412e-08
1.7802413e-08
1.6471176e-08
1.5347871e-08
1.4418607e-08
1.366792e-08
1.3085157e-08
1.2659415e-08
1.2382643e-08
1.2248825e-08
1.2254461e-08
1.2392226e-08
1.2663694e-08
1.3066641e-08
1.3595872e-08
1.4244024e-08
1.5001897e-08
1.5858306e-08
1.6801775e-08
1.7815577e-08
1.890069e-08
1.9988992e-08
2.1268212e-08
8.4772677e-08
8.4962605e-08
8.5148272e-08
8.5174365e-08
8.4902193e-08
8.4236202e-08
8.3119239e-08
8.1532631e-08
7.9492216e-08
7.7049382e-08
7.4255583e-08
7.1250535e-08
6.8047668e-08
6.472504e-08
6.136638e-08
5.7967558e-08
5.4576174e-08
5.1240416e-08
4.7999368e-08
4.4884022e-08
4.191869e-08
3.912312e-08
3.651754e-08
3.4131385e-08
3.1980357e-08
3.0071251e-08
2.8408937e-08
2.6997542e-08
2.5841319e-08
2.4948066e-08
2.432542e-08
2.398298e-08
2.3930854e-08
2.4181659e-08
2.4754359e-08
2.5657178e-08
2.688815e-08
2.8435682e-08
3.0281975e-08
3.2404365e-08
3.4770338e-08
3.7347077e-08
4.0076159e-08
4.2949513e-08
4.5810785e-08
4.905828e-08
8.4165371e-08
8.4171312e-08
8.4318471e-08
8.4529666e-08
8.4708905e-08
8.4760621e-08
8.4603564e-08
8.417544e-08
8.3437037e-08
8.2379569e-08
8.1006327e-08
7.9344604e-08
7.7434431e-08
7.5316584e-08
7.3044671e-08
7.0692527e-08
6.8256031e-08
6.5789105e-08
6.3326678e-08
6.0905358e-08
5.8553721e-08
5.6292496e-08
5.4113031e-08
5.2027188e-08
5.0057081e-08
4.8227108e-08
4.6565796e-08
4.5104916e-08
4.3883447e-08
4.2946906e-08
4.2345416e-08
4.2129913e-08
4.2359496e-08
4.3082301e-08
4.4336703e-08
4.6141717e-08
4.8524149e-08
5.1523277e-08
5.5115428e-08
5.9115097e-08
6.3461182e-08
6.8091575e-08
7.2921653e-08
7.7917689e-08
8.2857879e-08
8.8245075e-08
8.3929535e-08
8.3725017e-08
8.3655771e-08
8.3713586e-08
8.3865425e-08
8.4060449e-08
8.4240641e-08
8.4349141e-08
8.4336383e-08
8.4163465e-08
8.381483e-08
8.3233566e-08
8.2516294e-08
8.1632639e-08
8.0532033e-08
7.9270076e-08
7.7884127e-08
7.6398107e-08
7.4865717e-08
7.327245e-08
7.1659625e-08
7.0055244e-08
6.8479515e-08
6.6952109e-08
6.5494121e-08
6.4128223e-08
6.288193e-08
6.1779572e-08
6.0864528e-08
6.0188525e-08
5.9835273e-08
5.9931614e-08
6.0636705e-08
6.1960032e-08
6.3960849e-08
6.6687856e-08
7.01474e-08
7.4306568e-08
7.9097077e-08
8.4425749e-08
9.018444e-08
9.6261931e-08
1.0254023e-07
1.0895256e-07
1.1527477e-07
1.2194041e-07
8.3897073e-08
8.3586813e-08
8.3353589e-08
8.3215233e-08
8.3177276e-08
8.3231045e-08
8.3355933e-08
8.352354e-08
8.370301e-08
8.3860505e-08
8.3980512e-08
8.3994918e-08
8.3923334e-08
8.3791386e-08
8.3551523e-08
8.3270645e-08
8.2949326e-08
8.2523801e-08
8.1989996e-08
8.1345307e-08
8.0598395e-08
7.979573e-08
7.8960454e-08
7.8111084e-08
7.7257879e-08
7.6418962e-08
7.5618453e-08
7.4911095e-08
7.4321398e-08
7.3955625e-08
7.3929233e-08
7.4350245e-08
7.5340069e-08
7.7018506e-08
7.9476194e-08
8.2762289e-08
8.6876857e-08
9.177123e-08
9.7355761e-08
1.0351183e-07
1.1010541e-07
1.170005e-07
1.240637e-07
1.3120284e-07
1.382274e-07
1.4542893e-07
8.3918384e-08
8.3587906e-08
8.3293226e-08
8.3046597e-08
8.2860477e-08
8.274327e-08
8.2697254e-08
8.2718292e-08
8.2797695e-08
8.2921632e-08
8.3079307e-08
8.3250323e-08
8.3417262e-08
8.3575009e-08
8.3685691e-08
8.3742936e-08
8.3796418e-08
8.3842797e-08
8.3950116e-08
8.4103773e-08
8.4230605e-08
8.4317827e-08
8.433636e-08
8.4287826e-08
8.4175888e-08
8.400482e-08
8.3796693e-08
8.3586789e-08
8.3435426e-08
8.34362e-08
8.3720781e-08
8.4403767e-08
8.5466449e-08
8.7284262e-08
8.9910013e-08
9.3392908e-08
9.7735118e-08
1.0288376e-07
1.0873888e-07
1.1516834e-07
1.2202459e-07
1.2916034e-07
1.3643649e-07
1.4374632e-07
1.5093704e-07
1.5815481e-07
8.3934162e-08
8.3613124e-08
8.3316532e-08
8.3044862e-08
8.2802703e-08
8.2596423e-08
8.2432203e-08
8.2314571e-08
8.2245946e-08
8.2226292e-08
8.2253668e-08
8.2325983e-08
8.2437847e-08
8.2583991e-08
8.2756753e-08
8.2944482e-08
8.3147204e-08
8.3354462e-08
8.35613e-08
8.3783507e-08
8.4011647e-08
8.4243822e-08
8.448572e-08
8.472505e-08
8.4935421e-08
8.5151756e-08
8.5323243e-08
8.5488719e-08
8.5657135e-08
8.5872786e-08
8.6297067e-08
8.7071301e-08
8.8359879e-08
9.0322877e-08
9.3084029e-08
9.6718846e-08
1.0124009e-07
1.0659698e-07
1.126854e-07
1.1936587e-07
1.2648144e-07
1.3387797e-07
1.4140834e-07
1.4896375e-07
1.5639183e-07
1.6381983e-07
8.3939403e-08
8.3626324e-08
8.3340349e-08
8.3076728e-08
8.2833404e-08
8.2610542e-08
8.2409952e-08
8.2234391e-08
8.2086909e-08
8.1970536e-08
8.1887667e-08
8.184076e-08
8.1831932e-08
8.1862421e-08
8.193388e-08
8.2046685e-08
8.2200308e-08
8.2391931e-08
8.2621537e-08
8.2882788e-08
8.3166974e-08
8.346948e-08
8.3784973e-08
8.4103526e-08
8.4411816e-08
8.4693675e-08
8.4942665e-08
8.5173215e-08
8.542886e-08
8.5784252e-08
8.6350526e-08
8.7277257e-08
8.8735468e-08
9.0895373e-08
9.3898691e-08
9.7834152e-08
1.0272223e-07
1.0851314e-07
1.150963e-07
1.2232117e-07
1.3001492e-07
1.380109e-07
1.4614242e-07
1.5430186e-07
1.622969e-07
1.7033899e-07
8.3941042e-08
8.3630001e-08
8.3349221e-08
8.3093972e-08
8.286065e-08
8.264666e-08
8.245048e-08
8.2271624e-08
8.2110499e-08
8.1968283e-08
8.1846705e-08
8.1747952e-08
8.1674716e-08
8.1630016e-08
8.1617162e-08
8.1639384e-08
8.1694649e-08
8.1787534e-08
8.1944297e-08
8.213795e-08
8.2366964e-08
8.2634477e-08
8.2929755e-08
8.3239989e-08
8.3552168e-08
8.3854436e-08
8.4143917e-08
8.4434653e-08
8.4768732e-08
8.5224809e-08
8.5923751e-08
8.7024709e-08
8.871192e-08
9.1172125e-08
9.4565595e-08
9.8997953e-08
1.0450047e-07
1.110246e-07
1.1844967e-07
1.2660684e-07
1.3529638e-07
1.4432899e-07
1.5350495e-07
1.6271808e-07
1.7170637e-07
1.8083237e-07
8.3941919e-08
8.3630967e-08
8.3350988e-08
8.309815e-08
8.2869455e-08
8.2662349e-08
8.2474726e-08
8.230501e-08
8.2152206e-08
8.2015936e-08
8.1896461e-08
8.1794654e-08
8.1712022e-08
8.165065e-08
8.1613419e-08
8.160234e-08
8.1623679e-08
8.1680043e-08
8.1772836e-08
8.1913156e-08
8.2082997e-08
8.2290736e-08
8.2531114e-08
8.279576e-08
8.3075214e-08
8.3362583e-08
8.3659809e-08
8.3986449e-08
8.4390158e-08
8.4956359e-08
8.5816152e-08
8.714302e-08
8.9140899e-08
9.2021538e-08
9.5973088e-08
1.0112709e-07
1.0753212e-07
1.1514258e-07
1.2382323e-07
1.3337596e-07
1.4355667e-07
1.5413852e-07
1.6486736e-07
1.75633e-07
1.8605729e-07
1.9674067e-07
8.3941955e-08
8.3631151e-08
8.3351159e-08
8.3098385e-08
8.2870259e-08
8.2664679e-08
8.2479901e-08
8.2314522e-08
8.216751e-08
8.2038241e-08
8.1926548e-08
8.183276e-08
8.1757736e-08
8.1702882e-08
8.1670172e-08
8.1661773e-08
8.1681878e-08
8.1731895e-08
8.1817401e-08
8.1935868e-08
8.2090453e-08
8.2279612e-08
8.2500658e-08
8.2748313e-08
8.3017802e-08
8.3307812e-08
8.3626792e-08
8.400194e-08
8.4489996e-08
8.5187894e-08
8.6240449e-08
8.7841583e-08
9.022344e-08
9.3634034e-08
9.8302917e-08
1.0440224e-07
1.1201018e-07
1.21092e-07
1.3149629e-07
1.4298431e-07
1.5525103e-07
1.6801563e-07
1.8092943e-07
1.9387284e-07
2.063163e-07
2.192633e-07
8.3941399e-08
8.363071e-08
8.3350781e-08
8.3097955e-08
8.286967e-08
8.2663933e-08
8.247918e-08
8.2314222e-08
8.2168234e-08
8.2040771e-08
8.1931791e-08
8.1841684e-08
8.1771311e-08
8.1721984e-08
8.1695642e-08
8.1693919e-08
8.1721149e-08
8.1777659e-08
8.1867523e-08
8.1993271e-08
8.2155697e-08
8.2347437e-08
8.2576206e-08
8.2835114e-08
8.3122516e-08
8.344162e-08
8.3806858e-08
8.4253103e-08
8.484704e-08
8.5699161e-08
8.697267e-08
8.8888227e-08
9.1715824e-08
9.5753979e-08
1.0129213e-07
1.0856505e-07
1.1770375e-07
1.2870318e-07
1.4139868e-07
1.5551411e-07
1.7066408e-07
1.8646089e-07
2.0240352e-07
2.1844879e-07
2.338688e-07
2.5009949e-07
8.3940619e-08
8.3629906e-08
8.3349988e-08
8.3097171e-08
8.2868848e-08
8.2662994e-08
8.2478033e-08
8.2312798e-08
8.2166517e-08
8.2038824e-08
8.1929772e-08
8.1839854e-08
8.1770056e-08
8.172174e-08
8.1697219e-08
8.1697107e-08
8.172706e-08
8.1785211e-08
8.1884348e-08
8.2019352e-08
8.2183059e-08
8.2386855e-08
8.263069e-08
8.2909596e-08
8.3225098e-08
8.3584521e-08
8.4007791e-08
8.4537188e-08
8.5249641e-08
8.627036e-08
8.7784361e-08
9.0045158e-08
9.337e-08
9.8124223e-08
1.0468002e-07
1.1336563e-07
1.244059e-07
1.3784665e-07
1.5355288e-07
1.7123342e-07
1.9033823e-07
2.1034764e-07
2.3072777e-07
2.5157475e-07
2.7123064e-07
2.9169421e-07
8.3939348e-08
8.3628616e-08
8.3348704e-08
8.3095909e-08
8.2867612e-08
8.2661771e-08
8.2476788e-08
8.2311473e-08
8.2165038e-08
8.2037105e-08
8.1927726e-08
8.1837408e-08
8.1767151e-08
8.1718399e-08
8.1693305e-08
8.1693739e-08
8.1723775e-08
8.1784478e-08
8.1881657e-08
8.2017174e-08
8.2187315e-08
8.2397955e-08
8.2652094e-08
8.2948167e-08
8.3290143e-08
8.3689204e-08
8.4170597e-08
8.4784028e-08
8.5616969e-08
8.6810422e-08
8.8573468e-08
9.1197517e-08
9.5055503e-08
1.0059758e-07
1.0830047e-07
1.1863521e-07
1.3196003e-07
1.4841836e-07
1.6804926e-07
1.9040763e-07
2.1482039e-07
2.4097134e-07
2.6813112e-07
2.9539897e-07
3.1951226e-07
3.4626317e-07
8.3937278e-08
8.3626544e-08
8.3346657e-08
8.3093902e-08
8.2865658e-08
8.2659875e-08
8.2474949e-08
8.2309681e-08
8.216327e-08
8.2035322e-08
8.1925872e-08
8.1835402e-08
8.1764904e-08
8.1715768e-08
8.1690341e-08
8.1689469e-08
8.1718642e-08
8.1776126e-08
8.1874317e-08
8.2015513e-08
8.2183986e-08
8.2399487e-08
8.266158e-08
8.2970977e-08
8.3334998e-08
8.3768902e-08
8.4303289e-08
8.4995347e-08
8.5943286e-08
8.7304506e-08
8.9313436e-08
9.2302763e-08
9.6707324e-08
1.030794e-07
1.1201823e-07
1.2420972e-07
1.4013237e-07
1.6027346e-07
1.8477064e-07
2.1291631e-07
2.4484684e-07
2.8001181e-07
3.1550104e-07
3.4959181e-07
3.8205561e-07
4.2373789e-07
8.3934373e-08
8.3623636e-08
8.3343775e-08
8.3091066e-08
8.2862881e-08
8.2657167e-08
8.2472317e-08
8.2307129e-08
8.2160797e-08
8.203292e-08
8.1923523e-08
8.1833078e-08
8.1762552e-08
8.171335e-08
8.1687626e-08
8.1687172e-08
8.1716342e-08
8.1775764e-08
8.1872024e-08
8.2011477e-08
8.2180698e-08
8.2399696e-08
8.2667721e-08
8.2988404e-08
8.3371514e-08
8.3835986e-08
8.4417555e-08
8.5180688e-08
8.623416e-08
8.7751581e-08
8.9992995e-08
9.333391e-08
9.8274246e-08
1.054806e-07
1.1569686e-07
1.2986709e-07
1.4863057e-07
1.7316711e-07
2.0297208e-07
2.3880481e-07
2.8125109e-07
3.2654455e-07
3.7060444e-07
4.19853e-07
4.7583563e-07
5.3939088e-07
8.3930942e-08
8.3620188e-08
8.334034e-08
8.3087665e-08
8.285953e-08
8.2653877e-08
8.24691e-08
8.230399e-08
8.2157741e-08
8.2029947e-08
8.1920628e-08
8.1830246e-08
8.1759768e-08
8.1710551e-08
8.1684928e-08
8.168367e-08
8.1712565e-08
8.1769231e-08
8.1867583e-08
8.2011948e-08
8.2179899e-08
8.2401804e-08
8.2675039e-08
8.3005251e-08
8.340473e-08
8.3895695e-08
8.4518507e-08
8.5344309e-08
8.6491769e-08
8.8149808e-08
9.0602982e-08
9.4270299e-08
9.971229e-08
1.0772859e-07
1.1919616e-07
1.3537068e-07
1.5723813e-07
1.8636394e-07
2.2193126e-07
2.6881653e-07
3.2144608e-07
3.7710852e-07
4.3988701e-07
5.2696968e-07
6.0897484e-07
6.9070263e-07
8.3927452e-08
8.3616674e-08
8.3336823e-08
8.3084161e-08
8.2856053e-08
8.2650442e-08
8.2465717e-08
8.2300672e-08
8.2154497e-08
8.2026784e-08
8.1917548e-08
8.1827248e-08
8.1756841e-08
8.1707694e-08
8.1682019e-08
8.1681312e-08
8.1710442e-08
8.1768694e-08
8.1865955e-08
8.2009973e-08
8.217766e-08
8.2402996e-08
8.2681283e-08
8.3020201e-08
8.3434064e-08
8.3948034e-08
8.4606544e-08
8.548667e-08
8.6715902e-08
8.8497246e-08
9.113677e-08
9.5098702e-08
1.0098674e-07
1.0978382e-07
1.2235229e-07
1.40661e-07
1.6550989e-07
1.9894222e-07
2.4229906e-07
3.009492e-07
3.6003867e-07
4.3832215e-07
5.4019869e-07
6.7054695e-07
7.5267766e-07
8.9599462e-07
8.39241e-08
8.3613333e-08
8.3333503e-08
8.3080867e-08
8.2852788e-08
8.2647208e-08
8.246252e-08
8.2297516e-08
8.2151387e-08
8.2023724e-08
8.191454e-08
8.1824289e-08
8.1753926e-08
8.1704794e-08
8.1679222e-08
8.1677965e-08
8.1706834e-08
8.1763197e-08
8.186194e-08
8.2013084e-08
8.2177397e-08
8.2404532e-08
8.2686648e-08
8.3032839e-08
8.345895e-08
8.399254e-08
8.4681426e-08
8.5607853e-08
8.6907049e-08
8.879468e-08
9.159514e-08
9.5816632e-08
1.0209337e-07
1.1161597e-07
1.2508447e-07
1.4578615e-07
1.7251482e-07
2.114662e-07
2.6372502e-07
3.2954607e-07
4.0097039e-07
5.2369318e-07
6.634519e-07
8.1499852e-07
9.1302654e-07
1.2503744e-06
8.3920679e-08
8.3610007e-08
8.3330269e-08
8.3077714e-08
8.2849706e-08
8.2644193e-08
8.2459567e-08
8.2294627e-08
8.2148565e-08
8.2020974e-08
8.191187e-08
8.1821707e-08
8.1751435e-08
8.17024e-08
8.1676869e-08
8.1676046e-08
8.170528e-08
8.1762496e-08
8.1860741e-08
8.2011878e-08
8.2176071e-08
8.2405989e-08
8.2691784e-08
8.3044161e-08
8.348047e-08
8.403038e-08
8.4744809e-08
8.5709957e-08
8.70676e-08
8.9044032e-08
9.1980552e-08
9.6417161e-08
1.030421e-07
1.1315266e-07
1.2753276e-07
1.5034192e-07
1.780763e-07
2.2526386e-07
2.8212383e-07
3.5464356e-07
4.557818e-07
6.2477853e-07
7.7858841e-07
9.571111e-07
1.1486012e-06
1.7766597e-06
8.3916953e-08
8.3606472e-08
8.3326921e-08
8.3074526e-08
8.2846649e-08
8.2641239e-08
8.2456695e-08
8.2291816e-08
8.2145798e-08
8.2018236e-08
8.1909148e-08
8.181899e-08
8.1748717e-08
8.1699668e-08
8.167418e-08
8.1672992e-08
8.1701978e-08
8.1757997e-08
8.1857906e-08
8.201174e-08
8.2175629e-08
8.2406804e-08
8.2695515e-08
8.3053114e-08
8.3498396e-08
8.4061297e-08
8.4796999e-08
8.5795213e-08
8.7202948e-08
8.9255185e-08
9.2309715e-08
9.6928832e-08
1.0387577e-07
1.1441175e-07
1.2986572e-07
1.5363564e-07
1.8378019e-07
2.3896424e-07
2.9483832e-07
3.8401754e-07
5.2255896e-07
7.170321e-07
8.7873211e-07
1.1254039e-06
1.4933119e-06
2.3223422e-06
8.3912812e-08
8.3602595e-08
8.3323296e-08
8.3071132e-08
8.284346e-08
8.2638232e-08
8.2453851e-08
8.2289125e-08
8.2143254e-08
8.2015841e-08
8.1906906e-08
8.1816906e-08
8.1746797e-08
8.1697923e-08
8.1672558e-08
8.1671914e-08
8.1701275e-08
8.1758186e-08
8.1857553e-08
8.2009e-08
8.217524e-08
8.2408826e-08
8.2700127e-08
8.3061765e-08
8.351397e-08
8.4087793e-08
8.4839515e-08
8.5862877e-08
8.7309653e-08
8.9421095e-08
9.256743e-08
9.7322504e-08
1.0451922e-07
1.1542297e-07
1.3184109e-07
1.5582985e-07
1.910367e-07
2.4910436e-07
3.0531114e-07
4.2071567e-07
5.8680677e-07
7.9165986e-07
9.7417817e-07
1.3479858e-06
1.9969316e-06
2.655588e-06
8.3908179e-08
8.3598374e-08
8.3319438e-08
8.3067555e-08
8.2840099e-08
8.263503e-08
8.2450754e-08
8.228608e-08
8.2140211e-08
8.2012753e-08
8.1903731e-08
8.181361e-08
8.1743356e-08
8.1694329e-08
8.166885e-08
8.1667793e-08
8.1696934e-08
8.1752855e-08
8.1854609e-08
8.2007178e-08
8.2173135e-08
8.2407446e-08
8.2701361e-08
8.3067483e-08
8.3526016e-08
8.4112986e-08
8.4881198e-08
8.5928041e-08
8.7410907e-08
8.9578639e-08
9.2820162e-08
9.7718515e-08
1.0520864e-07
1.1638156e-07
1.3339439e-07
1.5826152e-07
1.9900176e-07
2.5437878e-07
3.1851404e-07
4.5891642e-07
6.4014454e-07
8.5023435e-07
1.0800785e-06
1.6318987e-06
2.6536789e-06
2.6671524e-06
8.3903062e-08
8.3593674e-08
8.3315192e-08
8.3063742e-08
8.2836667e-08
8.2631935e-08
8.2447976e-08
8.2283617e-08
8.2138074e-08
8.2010959e-08
8.1902302e-08
8.1812566e-08
8.1742706e-08
8.1694076e-08
8.1668917e-08
8.1668629e-08
8.1698168e-08
8.1755513e-08
8.185457e-08
8.200476e-08
8.2175156e-08
8.2411283e-08
8.2705929e-08
8.3073773e-08
8.353544e-08