/*--------------------------------*- C++ -*----------------------------------*\
| =========                 |                                                 |
| \\      /  F ield         | OpenFOAM: The Open Source CFD Toolbox           |
|  \\    /   O peration     | Version:  v2006                                 |
|   \\  /    A nd           | Website:  www.openfoam.com                      |
|    \\/     M anipulation  |                                                 |
\*---------------------------------------------------------------------------*/
FoamFile
{
    version     2.0;
    format      ascii;
    class       volScalarField;
    location    "6000";
    object      omega;
}
// * * * * * * * * * * * * * * * * * * * * * * * * * * * * * * * * * * * * * //

dimensions      [0 0 -1 0 0 0 0];


internalField   nonuniform List<scalar> 
21256
(
2.566034
0.72412666
0.30893649
0.26082774
0.25114993
0.25162811
0.25302721
0.25366372
0.25380516
0.25380289
0.25379155
0.2537935
0.25379668
0.25379785
0.25380055
0.25380852
0.25381058
0.25380327
0.25379413
0.25378797
0.25378983
0.25378512
0.25377581
0.25376396
0.25374869
0.25373196
0.25371716
0.25370306
0.25368836
0.25367371
0.25365904
0.25364158
0.25361949
0.25359782
0.2535818
0.25356768
2.2511966
0.65252056
0.3114019
0.27420665
0.26844094
0.26962947
0.2708501
0.27127722
0.27133156
0.27130784
0.27129418
0.27129115
0.27128656
0.27127865
0.27127425
0.27127883
0.27127343
0.27125769
0.2712409
0.27122676
0.27122494
0.27121431
0.27119922
0.27118161
0.27116015
0.27113526
0.27111276
0.27109107
0.27106856
0.2710453
0.27102224
0.27099646
0.27096365
0.27092798
0.27089684
0.27086558
1.9911515
0.60070353
0.31932172
0.29174618
0.28862961
0.29019616
0.29120705
0.29145545
0.29144687
0.29141147
0.29139672
0.29138619
0.29137223
0.29135543
0.29134324
0.29134537
0.2913312
0.29130709
0.29128221
0.29126053
0.2912529
0.29123792
0.29121712
0.29119511
0.29116822
0.29113576
0.2911054
0.29107671
0.29104718
0.29101609
0.29098513
0.29095247
0.29091063
0.29086186
0.29081745
0.29076969
1.7741894
0.56026445
0.33246019
0.31296513
0.31228497
0.31405971
0.31479235
0.31488643
0.31483545
0.3147992
0.3147814
0.31476159
0.31473752
0.31471205
0.31469303
0.31469225
0.31466959
0.31463674
0.314604
0.3145753
0.31456118
0.31454248
0.31451673
0.31449183
0.31446182
0.31442288
0.31438566
0.31435058
0.31431583
0.3142784
0.31424061
0.31420317
0.3141553
0.3140949
0.31403968
0.31397768
1.5917737
0.5315598
0.35354843
0.33903013
0.34035091
0.34203311
0.34245576
0.34244143
0.34237338
0.34234004
0.34231554
0.34228442
0.34224984
0.34221645
0.34219173
0.34218787
0.34215733
0.34211497
0.34207567
0.34204139
0.34202092
0.3419979
0.3419689
0.34194375
0.34191409
0.34187116
0.34182944
0.34178957
0.34175218
0.34171213
0.34166964
0.3416308
0.34158229
0.34151381
0.34145238
0.34138075
1.4374812
0.51434882
0.38656854
0.37190534
0.37405973
0.37527012
0.37541822
0.37534466
0.37527485
0.37524466
0.37521121
0.37516659
0.37512208
0.37508176
0.37505266
0.37504777
0.37500998
0.37495748
0.3749138
0.37487751
0.37485196
0.37482325
0.37479255
0.37477205
0.37474826
0.37470517
0.37466401
0.37462264
0.37458578
0.37455035
0.3745074
0.37447203
0.37443125
0.37436203
0.37430126
0.37422843
1.3064937
0.50858443
0.41992808
0.41329659
0.41494535
0.41541515
0.4153856
0.41529799
0.41522775
0.41520174
0.41515705
0.4150986
0.41504583
0.41500065
0.41496933
0.41496784
0.41492421
0.41486212
0.41481818
0.41478542
0.41475928
0.41472472
0.41469411
0.41468515
0.4146757
0.4146374
0.41460591
0.41456798
0.41453558
0.41451581
0.41448119
0.41445606
0.41443412
0.41437848
0.4143279
0.41426758
1.1948989
0.51442485
0.46591469
0.46395864
0.4646993
0.46475946
0.46467796
0.46459496
0.46452351
0.46450482
0.46444857
0.46438273
0.46432815
0.46428318
0.46425275
0.46425942
0.46421417
0.46415052
0.46411128
0.46408879
0.46407147
0.46404009
0.46401442
0.46401849
0.46402761
0.46400362
0.46399333
0.46396703
0.46395365
0.46395254
0.46394463
0.46394092
0.46394521
0.46392842
0.46390331
0.46387411
1.0994554
0.53397768
0.52561875
0.52605416
0.52608944
0.52600786
0.52593602
0.5258735
0.52581446
0.52579462
0.52573906
0.52568748
0.52564825
0.52561553
0.52559168
0.5256094
0.52556834
0.52551852
0.52550459
0.52549881
0.52550305
0.52549124
0.52548652
0.52549664
0.52552494
0.52553021
0.52555135
0.52555522
0.52557896
0.52560807
0.52563907
0.52566054
0.52570859
0.52574012
0.52576454
0.52579107
0.16906687
0.16907371
0.16908117
0.16909481
0.16910856
0.16912296
0.16913685
0.16914957
0.16916124
0.16917213
0.1691827
0.16919337
0.16920393
0.16921361
0.16922172
0.16922764
0.16923105
0.16923312
0.16923394
0.16923206
0.16922699
0.16922005
0.16921402
0.1692133
0.16921234
0.16916311
0.16895231
0.16847663
0.16790473
0.16808559
0.17072857
0.18378569
0.23690063
0.45945652
1.5328753
6.765567
0.17377579
0.1737846
0.17379649
0.17380991
0.17382443
0.17383913
0.17385301
0.17386558
0.17387713
0.17388801
0.17389871
0.17390953
0.17392024
0.17393
0.17393811
0.17394388
0.17394711
0.17394907
0.17394981
0.17394771
0.17394241
0.17393564
0.17393009
0.17392863
0.17392431
0.17387325
0.17367236
0.17321656
0.17261744
0.17263527
0.17544033
0.18618332
0.23332939
0.43501569
1.4393613
6.1429908
0.17917404
0.17918513
0.1791986
0.17921268
0.17922788
0.17924309
0.17925715
0.17926976
0.17928133
0.17929228
0.1793031
0.17931408
0.17932493
0.1793348
0.17934295
0.17934865
0.17935169
0.17935361
0.17935458
0.17935275
0.1793475
0.17934049
0.17933405
0.17933175
0.17933223
0.17930343
0.17914798
0.17873252
0.17808238
0.17780103
0.17974828
0.18861984
0.22860927
0.40585895
1.3163561
5.5627546
0.18538859
0.18540171
0.18541614
0.18543091
0.18544674
0.18546225
0.18547624
0.18548865
0.18550004
0.18551089
0.1855217
0.18553269
0.18554356
0.18555342
0.18556151
0.18556701
0.1855697
0.1855715
0.18557268
0.18557107
0.18556583
0.18555879
0.185552
0.18554845
0.18554945
0.18553349
0.18541641
0.18505275
0.1843892
0.18389157
0.18522116
0.19225846
0.22606215
0.38100217
1.2055406
5.0239871
0.1926016
0.19261642
0.19263158
0.19264705
0.19266346
0.1926791
0.1926928
0.19270481
0.19271586
0.19272645
0.19273705
0.19274788
0.19275864
0.19276837
0.1927763
0.19278147
0.19278363
0.19278524
0.19278669
0.19278542
0.19278023
0.19277318
0.19276621
0.19276164
0.19276264
0.19275789
0.19267915
0.19237898
0.1917289
0.19101557
0.1917122
0.19725753
0.22522403
0.3592077
1.102189
4.5256947
0.20104841
0.20106461
0.20108047
0.20109657
0.20111342
0.20112886
0.20114188
0.20115316
0.20116359
0.20117362
0.2011837
0.20119412
0.20120456
0.20121397
0.20122155
0.20122616
0.2012275
0.20122884
0.20123064
0.20122987
0.20122477
0.20121777
0.20121098
0.20120567
0.20120553
0.20120793
0.20116296
0.20093403
0.20033885
0.19946865
0.19954233
0.20478257
0.22639632
0.34095145
1.0072668
4.0665902
0.21104397
0.21106144
0.21107779
0.21109443
0.21111147
0.21112621
0.21113801
0.21114811
0.21115749
0.21116649
0.2111756
0.21118525
0.21119507
0.21120386
0.21121077
0.2112145
0.21121452
0.2112155
0.21121781
0.2112178
0.21121289
0.21120601
0.21119981
0.21119436
0.21119292
0.21119891
0.21118148
0.2110251
0.21052109
0.20960997
0.20915243
0.21261398
0.22991562
0.32647465
0.92136444
3.6451865
0.22301292
0.22303157
0.22304815
0.22306514
0.22308201
0.22309529
0.22310524
0.22311354
0.2231213
0.22312861
0.22313619
0.22314465
0.22315349
0.22316112
0.22316687
0.22316927
0.22316714
0.22316786
0.22317091
0.22317218
0.22316761
0.22316084
0.2231558
0.22315125
0.22314883
0.22315514
0.22315756
0.22306995
0.22267822
0.22177881
0.22090597
0.2229627
0.23593654
0.31606595
0.84535849
3.2598025
0.23752149
0.23754109
0.23755752
0.23757476
0.23759105
0.23760214
0.23760963
0.23761564
0.23762134
0.23762638
0.23763211
0.23763922
0.23764674
0.23765249
0.23765644
0.23765693
0.2376521
0.23765301
0.23765735
0.23766043
0.23765659
0.23764969
0.23764643
0.23764402
0.23764193
0.23764596
0.23765942
0.23762944
0.23737078
0.23656517
0.23533601
0.23602915
0.24543171
0.31005112
0.77955749
2.9086581
7.6352303
8.8620153
10.27465
11.898467
13.761664
15.895404
18.333948
21.114715
24.27837
27.868684
31.932622
36.520011
41.683184
47.47654
53.955956
61.178067
69.199384
78.075268
87.858769
98.599303
110.34136
123.12309
136.97496
151.91842
167.96529
185.11647
203.36031
222.67371
243.0201
264.35024
286.60792
309.72014
333.60932
358.18897
383.34451
408.97497
434.97326
461.22052
487.59371
513.96791
540.22105
566.24371
591.93301
617.20015
641.93605
666.09041
1.8440576
2.1904591
2.5743197
2.9896759
3.4416582
3.938151
4.4882935
5.1004862
5.7834866
6.5468
7.4000153
8.3526124
9.4141068
10.594065
11.901904
13.346854
14.937491
16.68168
18.585856
20.654853
22.890995
25.293904
27.860277
30.58105
33.445717
36.438742
39.54156
42.735585
45.997386
49.317332
52.6304
56.035459
59.498775
62.92324
66.386675
69.820715
73.26831
76.880361
80.665512
84.57335
88.503049
92.403197
96.282157
100.16118
104.02918
107.70645
0.51640081
0.58767037
0.67629519
0.7818669
0.90531354
1.0477831
1.2105702
1.3950223
1.6026246
1.8350702
2.094326
2.3826593
2.7027021
3.0574075
3.4498908
3.883319
4.3607523
4.8850416
5.4586125
6.0833145
6.7601165
7.4888922
8.2682857
9.0947977
9.9634601
10.867207
11.796988
12.742758
13.692461
14.636526
15.557868
16.457755
17.332056
18.167153
18.964016
19.719186
20.434482
21.124002
21.798014
22.461489
23.113428
23.752983
24.378309
24.999154
25.596303
26.200785
0.25224181
0.27250826
0.29895827
0.3320078
0.37253374
0.42151532
0.47995078
0.54881479
0.62905371
0.72159516
0.82737445
0.94666326
1.0791567
1.2255024
1.3866503
1.5636717
1.757663
1.9696934
2.200714
2.4514852
2.7224472
3.013598
3.3244568
3.6536266
3.9990372
4.3576789
4.7255628
5.0981724
5.4700717
5.8362952
6.1906948
6.5296784
6.8513673
7.152241
7.4314601
7.6883496
7.9231057
8.1385368
8.3375264
8.5224927
8.6949287
8.8557067
9.0051975
9.1461334
9.2782485
9.3938884
0.18636855
0.19131759
0.19872382
0.20884994
0.22213419
0.23908729
0.26028531
0.28630209
0.31752452
0.35426907
0.39696771
0.44740889
0.50585444
0.57219151
0.64630089
0.72815388
0.81781131
0.91539956
1.0210607
1.1349068
1.2569503
1.3870297
1.5247952
1.6694835
1.8200287
1.9749333
2.1322499
2.2897898
2.4450044
2.5954554
2.7386376
2.8727545
2.996831
3.1098289
3.2117398
3.3028356
3.3837313
3.4557886
3.5203715
3.5786495
3.6317411
3.6809727
3.7267717
3.7694047
3.8102193
3.8429941
0.16913022
0.16900057
0.16991989
0.17202664
0.17551763
0.18063755
0.18761192
0.19676416
0.20858813
0.22336408
0.24123897
0.26275547
0.28847607
0.31875481
0.35372404
0.39335927
0.43754428
0.48611861
0.53889547
0.59566522
0.6561757
0.72010278
0.78704353
0.85640802
0.92747937
0.99935145
1.0709312
1.1410584
1.2084668
1.2720042
1.3306212
1.3836831
1.4309765
1.4723643
1.5081686
1.5388795
1.5650445
1.5877325
1.6081949
1.6270238
1.6444075
1.6600136
1.6740213
1.686661
1.6988422
1.7068417
0.16521138
0.16323458
0.1618617
0.1610704
0.16090145
0.16143813
0.16282483
0.16532786
0.16919497
0.1746134
0.18168959
0.19056073
0.20145695
0.21465395
0.23039354
0.24883302
0.27002764
0.29393703
0.32043767
0.34933706
0.38037819
0.41323914
0.44754018
0.48280015
0.51847825
0.55395384
0.58853897
0.62157269
0.65238117
0.68045313
0.70541224
0.72714286
0.74578914
0.76157553
0.77494891
0.786268
0.79650516
0.80598036
0.81461863
0.82264094
0.830229
0.8375013
0.84454943
0.85133413
0.85834149
0.86335742
0.16436496
0.16200214
0.160048
0.15847384
0.15710758
0.15608245
0.15541714
0.15517306
0.1554659
0.15652933
0.1585393
0.16158816
0.16570053
0.17093477
0.17740061
0.18521972
0.19449657
0.2052947
0.21762103
0.23141954
0.24656724
0.26287407
0.28008861
0.2978827
0.31588175
0.33366652
0.35079139
0.36686297
0.38149486
0.39448964
0.40575465
0.41537791
0.42361254
0.43077683
0.43724456
0.44364985
0.44991895
0.45624705
0.46280862
0.46969046
0.47689535
0.48437258
0.49206632
0.49983528
0.50787464
0.51490291
0.1646975
0.16203832
0.15973785
0.15777638
0.15611309
0.15470135
0.15352812
0.15255428
0.1516669
0.15111489
0.150805
0.15092861
0.15161284
0.15292706
0.15494854
0.15772717
0.16124482
0.16551275
0.17055519
0.17637803
0.18295256
0.19020675
0.1980215
0.20622328
0.21459975
0.22290517
0.23087983
0.23830354
0.24497854
0.25085461
0.25596973
0.26048709
0.26467771
0.26884429
0.27340264
0.27845709
0.28415692
0.29061256
0.29786021
0.30584806
0.31446423
0.32356472
0.33299725
0.34258152
0.35233682
0.36154486
0.16522517
0.16251458
0.16007561
0.15791424
0.15602992
0.15439516
0.15298385
0.15175289
0.15069387
0.14978021
0.14903826
0.14835242
0.14784564
0.14751689
0.1473315
0.14746199
0.1479695
0.14888056
0.15021711
0.15199534
0.154219
0.15687402
0.15991576
0.1632122
0.16661408
0.16998755
0.17320396
0.1761686
0.17881003
0.18118074
0.18339695
0.18566616
0.18825643
0.19147848
0.19550731
0.20053108
0.20667717
0.2139905
0.22240413
0.23175392
0.24186713
0.25250882
0.26363149
0.27495683
0.28633359
0.29753888
0.16556394
0.16294971
0.16054855
0.1583579
0.1563828
0.15462198
0.15306451
0.15169259
0.15049312
0.14943467
0.14851018
0.14771611
0.14703768
0.14646401
0.14601848
0.14559101
0.14530179
0.14512971
0.14508083
0.14514527
0.14531308
0.14555953
0.1459239
0.14641545
0.14698927
0.14759267
0.14818417
0.14874833
0.14930428
0.1499763
0.15094033
0.1524394
0.15473692
0.15811224
0.1627554
0.16881062
0.17604146
0.18422715
0.19332239
0.20387594
0.21532115
0.22734192
0.23969999
0.25218589
0.26462934
0.27693178
0.16569479
0.16318472
0.1608864
0.15877168
0.15682912
0.15505583
0.15344898
0.15200439
0.15071537
0.14956874
0.14855013
0.14765675
0.1468806
0.14621032
0.14564426
0.14518262
0.1448108
0.14454024
0.14430479
0.14417212
0.14412234
0.14412583
0.1441544
0.14418098
0.1441722
0.14410507
0.14398098
0.14385612
0.14383549
0.14407545
0.14475159
0.14600185
0.14790016
0.15116423
0.15585344
0.1620462
0.16974462
0.17886414
0.18924635
0.20066871
0.21288196
0.22563266
0.23868787
0.25184044
0.26489113
0.27783313
0.16571852
0.1632605
0.16103924
0.15901256
0.15715262
0.15544256
0.15387274
0.15243753
0.1511327
0.14995365
0.14889331
0.14794618
0.14710834
0.14637623
0.14574455
0.14521585
0.14478475
0.14444824
0.14420328
0.14404232
0.14395702
0.14390686
0.14391079
0.14390801
0.1438919
0.14382414
0.14372625
0.14353324
0.14353645
0.14369528
0.14425204
0.14551793
0.14776666
0.15126387
0.1562148
0.1627321
0.1708215
0.18038823
0.19125581
0.20319104
0.21593338
0.22921943
0.24280556
0.25648048
0.27003304
0.2834854
0.16571499
0.16326722
0.16107509
0.15909729
0.15730113
0.15566124
0.15415906
0.15278155
0.15151982
0.15036789
0.14932093
0.14837468
0.14752594
0.14677306
0.1461145
0.14554998
0.14507947
0.14470109
0.14441393
0.14421219
0.1440866
0.14402094
0.14399843
0.14398896
0.14395652
0.14389845
0.14379831
0.14369647
0.14368259
0.14390667
0.14458077
0.14598947
0.14842819
0.15217664
0.15745181
0.16437453
0.17295324
0.18308824
0.19459122
0.20721364
0.22067712
0.23470282
0.24902834
0.26343536
0.27768471
0.29184125
0.16571423
0.1632627
0.16107198
0.15910581
0.1573342
0.1557315
0.1542763
0.1529513
0.151743
0.15064132
0.14963888
0.14873029
0.14791169
0.14718071
0.14653629
0.14597813
0.14550654
0.1451214
0.14482152
0.14460316
0.14445871
0.14437546
0.14433512
0.1443135
0.1442842
0.1442347
0.14416442
0.14411337
0.14417112
0.14449764
0.14532326
0.14693293
0.1496398
0.15374147
0.15947237
0.16696647
0.17623747
0.1871807
0.1995926
0.21320313
0.22770772
0.24280467
0.25820507
0.27368206
0.28896132
0.30417764
0.16571824
0.16326405
0.16106922
0.15909997
0.15732922
0.15573375
0.15429346
0.15299107
0.15181204
0.15074448
0.14977899
0.14890838
0.14812742
0.14743252
0.14682157
0.14629358
0.14584823
0.14548521
0.14520331
0.14499922
0.14486627
0.14479313
0.14476326
0.14475621
0.14475142
0.14473613
0.14471777
0.14474088
0.14490372
0.1453746
0.14639559
0.14826866
0.15132898
0.15590004
0.16224269
0.17051216
0.18073269
0.19279573
0.20647852
0.22148123
0.23746068
0.25408016
0.27100843
0.2880036
0.30473074
0.32143119
0.16572296
0.16326916
0.16107306
0.15910088
0.15732637
0.15572757
0.15428578
0.15298493
0.1518113
0.15075329
0.14980137
0.14894792
0.14818714
0.14751485
0.14692829
0.14642584
0.1460066
0.14566975
0.14541376
0.14523525
0.14512791
0.14508137
0.14508034
0.14510769
0.14514623
0.14518768
0.1452452
0.14537015
0.14566987
0.14632447
0.147592
0.14979868
0.15331145
0.158492
0.16564157
0.1749501
0.18646237
0.20006985
0.21552699
0.23249359
0.25057147
0.26937282
0.28850526
0.30770698
0.3265539
0.34546199
0.16572559
0.16327333
0.16107823
0.15910611
0.15733051
0.15572953
0.15428479
0.15298074
0.15180425
0.15074431
0.14979185
0.14893959
0.14818191
0.14751474
0.14693534
0.1464421
0.14603404
0.14571032
0.14546944
0.14530826
0.14522081
0.14519912
0.14522727
0.14529212
0.14538008
0.14548787
0.14563502
0.14588093
0.14634398
0.14721917
0.14878682
0.15140594
0.15548777
0.16144922
0.16965214
0.18034201
0.19360136
0.2093306
0.22725909
0.24699213
0.26805122
0.28997006
0.31225953
0.33462511
0.35649209
0.37857625
0.16572573
0.16327459
0.16108071
0.15910971
0.15733488
0.15573417
0.15428907
0.15298399
0.15180584
0.15074378
0.14978892
0.14893418
0.14817418
0.14750505
0.14692425
0.14643037
0.14602267
0.14570068
0.14546289
0.14530892
0.14522375
0.14521938
0.14527012
0.14536643
0.14550051
0.14567511
0.1459172
0.1462959
0.14694296
0.14807249
0.14999354
0.15310807
0.15788722
0.16482546
0.17437333
0.18686347
0.20244558
0.22104877
0.24238262
0.26598426
0.29126455
0.31764241
0.34448367
0.37145058
0.39772717
0.4245456
0.16572463
0.16327375
0.16108033
0.15910995
0.15733588
0.15573593
0.15429151
0.15298692
0.151809
0.15074683
0.14979149
0.14893591
0.14817471
0.14750407
0.14692153
0.14642581
0.14601627
0.14569304
0.14545376
0.14530423
0.14520876
0.14522565
0.14529079
0.14541327
0.14558979
0.14582977
0.14616892
0.14668783
0.14753431
0.14894582
0.15126667
0.15495303
0.16055394
0.16866948
0.17987643
0.19464176
0.21323049
0.23564022
0.26158347
0.29052133
0.32171766
0.35442122
0.38777706
0.42138211
0.45402122
0.48778493
0.16572268
0.16327167
0.16107826
0.15910801
0.15733414
0.15573452
0.15429049
0.15298636
0.1518089
0.15074716
0.14979217
0.14893681
0.14817567
0.14750489
0.146922
0.14642574
0.1460156
0.1456917
0.14545317
0.14530113
0.14522649
0.14524121
0.14531577
0.14546331
0.145682
0.14598771
0.14642559
0.14708909
0.14814426
0.14985564
0.15260896
0.15692588
0.16345227
0.17292681
0.18609888
0.20363705
0.22599445
0.25331162
0.28536455
0.3215519
0.36096765
0.40263409
0.44537684
0.48870963
0.53069134
0.57489867
0.16571882
0.16326772
0.16107433
0.15910415
0.15733039
0.1557309
0.15428703
0.15298308
0.15180584
0.15074434
0.14978958
0.14893445
0.14817348
0.14750282
0.14691999
0.14642373
0.14601363
0.14569001
0.14545199
0.14530357
0.14522413
0.14525201
0.14534621
0.14552003
0.14578003
0.14615011
0.14668519
0.14749223
0.1487566
0.1507726
0.15397179
0.15895097
0.1664703
0.17744253
0.19284123
0.21362649
0.24053574
0.27398292
0.31392629
0.35975471
0.41044144
0.46471564
0.5209167
0.57841352
0.63390861
0.69425821
0.16571299
0.16326166
0.16106822
0.1590981
0.15732447
0.15572514
0.15428146
0.1529777
0.15180064
0.1507393
0.1497847
0.14892968
0.1481688
0.14749817
0.14691531
0.146419
0.14600892
0.14568546
0.14544865
0.14530022
0.1452349
0.14526381
0.14536929
0.14556675
0.14586608
0.14629758
0.14692527
0.14786942
0.14933488
0.15164656
0.15528489
0.16092832
0.16946466
0.18201387
0.19982324
0.22425365
0.2564335
0.29726745
0.3470625
0.40537104
0.47125906
0.54295203
0.61821946
0.69635832
0.77255806
0.86028744
0.16570571
0.16325411
0.16106054
0.15909043
0.1573169
0.15571771
0.15427422
0.15297067
0.15179384
0.15073273
0.14977834
0.1489235
0.14816275
0.14749218
0.14690934
0.14641301
0.14600294
0.14567967
0.14544348
0.14529728
0.14523213
0.14526997
0.14539099
0.14561056
0.14594518
0.1464319
0.14714348
0.14821298
0.14986404
0.15245144
0.15650478
0.16278615
0.17231784
0.18645306
0.20675257
0.23509639
0.27310219
0.32248114
0.38405579
0.45805367
0.54375733
0.63867707
0.74088137
0.850339
0.96127645
1.0937295
0.16569753
0.16324577
0.16105215
0.15908205
0.15730859
0.15570953
0.15426622
0.15296288
0.15178629
0.15072543
0.14977129
0.14891668
0.14815613
0.14748573
0.146903
0.14640674
0.14599678
0.1456737
0.14543837
0.14529286
0.14523563
0.14527595
0.14540713
0.14564609
0.14601231
0.14654824
0.14733425
0.14851504
0.15033193
0.15316739
0.15759881
0.16446987
0.17493689
0.19060104
0.21335894
0.24572728
0.28986605
0.34868007
0.42370794
0.51672371
0.62675599
0.75243308
0.89388396
1.0526251
1.2171133
1.4096152
0.16568894
0.16323717
0.1610436
0.1590736
0.15730026
0.15570136
0.15425823
0.15295511
0.15177877
0.15071818
0.14976434
0.14891004
0.14814979
0.14747968
0.14689721
0.14640123
0.14599152
0.145669
0.14543425
0.14529045
0.14523744
0.14528259
0.14542414
0.14567955
0.14607233
0.14665029
0.14750071
0.14877837
0.15074004
0.1537926
0.15855773
0.1659553
0.17726958
0.19435065
0.21943705
0.25578706
0.30603025
0.37481222
0.46456361
0.57929696
0.71806403
0.88621638
1.082917
1.3114097
1.5366977
1.8094906
0.16568015
0.1632285
0.16103512
0.15906531
0.15729218
0.15569349
0.15425057
0.15294767
0.15177157
0.15071124
0.14975767
0.14890366
0.14814372
0.14747391
0.14689176
0.14639603
0.14598692
0.14566403
0.14543343
0.14527977
0.14523874
0.14528838
0.14543967
0.1457099
0.14612609
0.14673962
0.14764352
0.14900255
0.15108755
0.15432644
0.15937981
0.1672372
0.17929898
0.19764422
0.22486957
0.26499096
0.32095137
0.40004413
0.50499334
0.64303264
0.81717619
1.0417781
1.30388
1.6137551
1.8956389
2.3438469
0.16567078
0.16321949
0.16102648
0.15905704
0.15728423
0.15568585
0.15424321
0.1529406
0.15176479
0.15070479
0.14975156
0.14889794
0.14813841
0.14746904
0.14688739
0.14639211
0.1459839
0.14566048
0.14543611
0.14526122
0.14524242
0.14529577
0.14545528
0.1457382
0.14617348
0.14681914
0.14777049
0.14919803
0.15138506
0.15477864
0.16007155
0.16831378
0.18101512
0.20045609
0.22961874
0.27307243
0.33430097
0.42393777
0.54314042
0.70630755
0.92523387
1.2107375
1.5370291
1.9340189
2.3009639
3.2064377
0.16566041
0.16320975
0.16101737
0.15904848
0.15727615
0.15567817
0.15423588
0.15293357
0.15175802
0.15069824
0.14974524
0.14889185
0.14813257
0.14746347
0.14688214
0.1463872
0.14597965
0.14565611
0.14543626
0.14524679
0.14524632
0.14530227
0.14546822
0.14576166
0.14621509
0.14688066
0.14787081
0.14935907
0.15163503
0.15516175
0.16065846
0.16923896
0.18247996
0.20285169
0.23365931
0.27986638
0.34638022
0.4459416
0.57746975
0.76944742
1.0392537
1.372049
1.7649436
2.2626257
2.7976194
4.7509371
0.1656487
0.16319894
0.16100743
0.15903933
0.1572677
0.15567032
0.15422857
0.15292673
0.15175164
0.15069231
0.14973977
0.14888686
0.1481281
0.14745957
0.14687887
0.14638459
0.14597784
0.14565503
0.14543658
0.14524965
0.14524919
0.1453076
0.14547983
0.14578201
0.14625135
0.14693293
0.14794788
0.14948013
0.15182555
0.15545572
0.16110604
0.16992105
0.18358021
0.20479178
0.23685533
0.28572256
0.35773348
0.46478531
0.60791075
0.8325294
1.1497182
1.5068394
1.9896242
2.6037095
3.4521917
7.4940006
0.16563563
0.16318711
0.16099674
0.15902959
0.15725874
0.15566199
0.15422072
0.15291924
0.15174436
0.15068514
0.14973263
0.14887968
0.14812087
0.1474523
0.14687161
0.14637746
0.14597103
0.14564883
0.1454315
0.14524471
0.14524939
0.14531081
0.14548784
0.14579855
0.1462781
0.14699423
0.14803917
0.14960686
0.15200899
0.15573613
0.1615517
0.17065199
0.18477822
0.2064898
0.23946829
0.29164233
0.36788769
0.47923645
0.63606881
0.89304726
1.2465819
1.6107012
2.2221602
2.9578224
4.3568648
11.914547
0.16562143
0.16317414
0.16098509
0.15901921
0.15724949
0.15565375
0.1542134
0.15291278
0.15173874
0.15068037
0.14972871
0.14887665
0.14811875
0.14745109
0.14687132
0.14637808
0.14597248
0.14565134
0.1454337
0.14525558
0.14525215
0.14531593
0.14549761
0.14581482
0.14630019
0.14703173
0.14809968
0.14969703
0.15213231
0.15588911
0.16173032
0.17081414
0.18505759
0.20713482
0.2423221
0.29785728
0.37503435
0.48978926
0.66353776
0.94663518
1.3254271
1.6903055
2.4665127
3.3186256
5.6404591
18.153521
0.16560755
0.16316136
0.16097331
0.15900835
0.15723944
0.15564431
0.15420431
0.15290375
0.1517295
0.15067066
0.14971829
0.14886534
0.14810644
0.14743778
0.14685713
0.14636329
0.14595749
0.14563689
0.14542004
0.14524271
0.14524874
0.1453141
0.14549964
0.14582578
0.14632625
0.1470742
0.14817191
0.14980826
0.15232292
0.15623437
0.1623839
0.17194282
0.18736137
0.20903269
0.24738447
0.30231092
0.37817494
0.4986559
0.69016102
0.9900822
1.3881153
1.7559945
2.7182043
3.6574899
7.4685477
25.856977
0.16559257
0.16314781
0.16096137
0.15899795
0.15723054
0.15563699
0.15419872
0.15290004
0.15172782
0.15067114
0.14972109
0.14887056
0.14811408
0.14744774
0.14686913
0.14637695
0.14597207
0.14565234
0.14543292
0.14527428
0.14524964
0.14532528
0.14551232
0.14583511
0.14633087
0.14706168
0.14815151
0.14979878
0.15224628
0.15596647
0.16165032
0.17072477
0.18297294
0.21092874
0.25352397
0.30190611
0.3795334
0.50778648
0.71463572
1.0230179
1.4388484
1.8170223
2.9671315
3.9504054
10.013583
34.21642
0.16558147
0.16313551
0.16094882
0.15898578
0.15721875
0.15562519
0.15418637
0.15288663
0.15171285
0.15065413
0.14970164
0.14884833
0.14808893
0.1474198
0.14683877
0.1463449
0.14593952
0.14562057
0.1454027
0.14523384
0.14523546
0.14530629
0.14550725
0.14585204
0.14637917
0.14717199
0.1482123
0.14997228
0.15275945
0.15717035
0.16429364
0.17575846
0.19839517
0.22854448
0.25313878
0.29544912
0.3827395
0.51719951
0.73590767
1.0459989
1.4788777
1.8715417
3.198598
4.1846787
13.258229
42.061567
0.16557515
0.1631295
0.16094182
0.15897809
0.1572114
0.15561905
0.15418178
0.15288353
0.15171105
0.15065337
0.14970159
0.1488487
0.14808936
0.14741982
0.14683796
0.14634285
0.1459355
0.14561573
0.14539793
0.14523573
0.14524316
0.14530946
0.14550515
0.14585071
0.1463764
0.14719004
0.14813383
0.1497219
0.15216017
0.1559374
0.16184457
0.1705639
0.18291431
0.1971567
0.22635096
0.2911376
0.38898144
0.5246396
0.75207622
1.0589665
1.5072431
1.9154678
3.3999735
4.3794836
16.646043
51.387839
182.20534
28.226146
10.241534
6.8409333
5.7638219
5.2594907
4.7861958
3.974156
2.6348642
1.3106006
0.93330004
0.90682538
0.93037136
1.0683885
2.2279904
4.0589038
4.7393713
4.5643226
3.8843437
3.1636278
2.6101988
2.2549365
2.0590246
1.9757648
1.9635881
2.0396813
2.244227
2.6513294
3.3765408
4.4881346
6.098235
8.5308716
12.696974
21.673122
51.708437
281.15345
191.93532
29.634643
10.676548
7.0720298
5.9301305
5.4036364
4.9344742
4.1475846
2.8118786
1.3854746
0.94247254
0.91182825
0.93319941
0.98475086
1.8593947
3.8136363
4.7872655
4.7861896
4.1829648
3.4331093
2.7993575
2.3570111
2.0995541
1.9919734
1.9835306
2.0672473
2.2666929
2.6252385
3.2015207
4.0700312
5.3480123
7.3076904
10.642988
17.66478
40.925273
219.58344
198.50332
30.541277
10.942682
7.2315659
6.0629021
5.52424
5.0412612
4.2300932
2.8589181
1.4011568
0.94820409
0.91698473
0.93832141
0.97327297
1.7318362
3.6900793
4.836311
4.9200581
4.3452156
3.5917775
2.9374406
2.4660843
2.1759545
2.0362958
2.0193843
2.1101569
2.3102473
2.646511
3.155706
3.8948308
4.9726261
6.622638
9.4665918
15.785825
39.680836
218.29362
204.93448
31.444864
11.220282
7.403394
6.2044493
5.6523058
5.1583244
4.329744
2.9271825
1.4250078
0.95425391
0.92211988
0.94351036
0.96845456
1.583654
3.5209258
4.8690346
5.0479944
4.5159037
3.7527344
3.0709576
2.5722674
2.2598931
2.1043193
2.0734014
2.1507493
2.3375035
2.6454954
3.0945719
3.733484
4.6578527
6.0840363
8.6313692
14.729162
40.408579
228.3366
211.77828
32.438104
11.520997
7.5860732
6.3530034
5.7862137
5.2815975
4.4379038
3.006212
1.4550426
0.96109967
0.92713459
0.94877265
0.9710652
1.4509127
3.3178622
4.8758549
5.1686923
4.6965287
3.9305946
3.2201431
2.6874828
2.3425922
2.1601179
2.1107897
2.1739101
2.3426922
2.616348
3.0118167
3.5701714
4.3790434
5.6484669
8.0095338
14.013821
40.367071
236.1052
218.68735
33.450645
11.829154
7.7741691
6.5062587
5.9244607
5.4090226
4.5496701
3.087817
1.4862992
0.96818854
0.93215565
0.95408525
0.9744801
1.3376584
3.099108
4.8515879
5.2729138
4.8738028
4.1108309
3.3731541
2.8055675
2.4284805
2.2169723
2.1419261
2.1807666
2.3212019
2.5581624
2.9055958
3.4000096
4.1251188
5.2896489
7.5438963
13.568972
40.718287
243.1981
225.68017
34.482499
12.144789
7.9679404
6.6644057
6.0670965
5.5403164
4.6645144
3.1713488
1.5185206
0.97540704
0.93699526
0.95943151
0.97872636
1.2452747
2.8724944
4.7975285
5.3589972
5.0474164
4.2944598
3.5317391
2.9261975
2.5111975
2.2671636
2.1629706
2.1686804
2.2771099
2.4784039
2.7832246
3.2259753
3.8890582
4.9826798
7.1755431
13.282728
41.273511
251.86461
232.88591
35.550659
12.47271
8.1692736
6.8284172
6.2148171
5.6763533
4.7841391
3.2593327
1.5531101
0.98285757
0.94175134
0.96477312
0.98353859
1.1703336
2.6389606
4.7092165
5.4213391
5.2117352
4.483958
3.6994387
3.0585696
2.6056987
2.3250799
2.1887658
2.1639835
2.2364814
2.4017527
2.668565
3.0697785
3.6872523
4.7327523
6.8830027
13.070016
42.078509
261.2831
240.28871
36.653384
12.812995
8.3781464
6.9983486
6.3676777
5.8170984
4.9081346
3.3509738
1.5897288
0.9905431
0.94656815
0.97010164
0.9887932
1.1127623
2.405155
4.5879752
5.4835768
5.3761796
4.6797633
3.8772889
3.2029824
2.7137532
2.3981763
2.2267136
2.1726063
2.2140965
2.3472748
2.58296
2.9533172
3.5399562
4.5555133
6.6811873
12.935871
43.051324
270.30739
247.8391
37.781701
13.16322
8.593793
7.1739361
6.5255119
5.9621913
5.0354294
3.4443517
1.6272834
0.99834603
0.95129753
0.97541327
0.99433441
1.0726334
2.1755687
4.4326002
5.5386562
5.545046
4.87937
4.0630359
3.3577828
2.8343063
2.4862237
2.2852727
2.2040836
2.2228783
2.3309882
2.5412337
2.8897431
3.4598738
4.4667195
6.6014976
12.973377
44.059683
279.48063
255.54641
38.936494
13.523684
8.8165298
7.3554168
6.6884893
6.1117225
5.1660912
3.5393832
1.665686
1.0062627
0.9560906
0.98066401
0.99960757
1.0488238
1.960819
4.2429436
5.5850944
5.7027362
5.0818599
4.2568418
3.5230709
2.9671766
2.5883527
2.3600298
2.2547355
2.2570701
2.3510497
2.5498475
2.8901106
3.4584391
4.4764623
6.6531937
13.189627
45.177339
289.10234
263.43977
40.121491
13.895424
9.0469049
7.5431445
6.8568754
6.2659064
5.3004206
3.6362871
1.7049433
1.0142731
0.96079907
0.98570326
1.0046673
1.0394703
1.7713192
4.0250407
5.6099675
5.8477746
5.2861939
4.4584143
3.698391
3.111796
2.7046983
2.4524402
2.3281859
2.3128618
2.3989334
2.5945997
2.9378776
3.5187852
4.5667164
6.8126572
13.54801
46.429641
299.22393
271.53906
41.3395
14.279332
9.2854205