/*--------------------------------*- C++ -*----------------------------------*\
| =========                 |                                                 |
| \\      /  F ield         | OpenFOAM: The Open Source CFD Toolbox           |
|  \\    /   O peration     | Version:  v2006                                 |
|   \\  /    A nd           | Website:  www.openfoam.com                      |
|    \\/     M anipulation  |                                                 |
\*---------------------------------------------------------------------------*/
FoamFile
{
    version     2.0;
    format      ascii;
    class       volScalarField;
    location    "6000";
    object      p;
}
// * * * * * * * * * * * * * * * * * * * * * * * * * * * * * * * * * * * * * //

dimensions      [1 -1 -2 0 0 0 0];


internalField   nonuniform List<scalar> 
21256
(
1.0000405
1.0000405
1.0000405
1.0000405
1.0000405
1.0000405
1.0000405
1.0000405
1.0000405
1.0000405
1.0000405
1.0000405
1.0000405
1.0000405
1.0000405
1.0000405
1.0000405
1.0000405
1.0000405
1.0000405
1.0000405
1.0000405
1.0000405
1.0000405
1.0000405
1.0000405
1.0000405
1.0000405
1.0000405
1.0000405
1.0000405
1.0000405
1.0000405
1.0000405
1.0000405
1.0000405
1.0000376
1.0000376
1.0000376
1.0000376
1.0000376
1.0000376
1.0000376
1.0000376
1.0000376
1.0000376
1.0000376
1.0000376
1.0000376
1.0000376
1.0000376
1.0000376
1.0000376
1.0000376
1.0000376
1.0000376
1.0000376
1.0000376
1.0000376
1.0000376
1.0000376
1.0000376
1.0000376
1.0000376
1.0000376
1.0000376
1.0000376
1.0000376
1.0000376
1.0000376
1.0000376
1.0000376
1.0000351
1.0000351
1.0000351
1.0000351
1.0000351
1.0000351
1.0000351
1.0000351
1.0000351
1.0000351
1.0000351
1.0000351
1.0000351
1.0000351
1.0000351
1.0000351
1.0000351
1.0000351
1.0000351
1.0000351
1.0000351
1.0000351
1.0000351
1.0000351
1.0000351
1.0000351
1.0000351
1.0000351
1.0000351
1.0000351
1.0000351
1.0000351
1.0000351
1.0000351
1.0000351
1.0000351
1.0000336
1.0000336
1.0000336
1.0000336
1.0000336
1.0000336
1.0000336
1.0000336
1.0000337
1.0000337
1.0000337
1.0000337
1.0000337
1.0000337
1.0000337
1.0000337
1.0000337
1.0000337
1.0000337
1.0000337
1.0000337
1.0000337
1.0000337
1.0000337
1.0000337
1.0000337
1.0000337
1.0000337
1.0000337
1.0000337
1.0000337
1.0000337
1.0000337
1.0000337
1.0000337
1.0000337
1.0000325
1.0000325
1.0000325
1.0000325
1.0000325
1.0000325
1.0000325
1.0000325
1.0000325
1.0000325
1.0000325
1.0000325
1.0000325
1.0000325
1.0000325
1.0000325
1.0000326
1.0000326
1.0000326
1.0000326
1.0000326
1.0000326
1.0000326
1.0000326
1.0000326
1.0000326
1.0000326
1.0000326
1.0000326
1.0000326
1.0000326
1.0000326
1.0000326
1.0000326
1.0000326
1.0000326
1.0000288
1.0000288
1.0000288
1.0000288
1.0000288
1.0000289
1.0000289
1.0000289
1.0000289
1.0000289
1.0000289
1.0000289
1.0000289
1.0000289
1.0000289
1.0000289
1.0000289
1.0000289
1.0000289
1.0000289
1.0000289
1.0000289
1.0000289
1.0000289
1.0000289
1.0000289
1.0000289
1.0000289
1.0000289
1.0000289
1.0000289
1.0000289
1.0000289
1.0000289
1.0000289
1.0000289
1.0000285
1.0000284
1.0000284
1.0000284
1.0000284
1.0000284
1.0000284
1.0000284
1.0000284
1.0000284
1.0000284
1.0000284
1.0000284
1.0000283
1.0000283
1.0000283
1.0000283
1.0000283
1.0000283
1.0000283
1.0000283
1.0000283
1.0000283
1.0000283
1.0000283
1.0000283
1.0000283
1.0000283
1.0000283
1.0000283
1.0000283
1.0000282
1.0000282
1.0000282
1.0000282
1.0000282
1.0000432
1.0000432
1.0000431
1.0000431
1.0000431
1.0000431
1.0000431
1.0000431
1.0000431
1.0000431
1.0000431
1.0000431
1.0000431
1.0000431
1.0000431
1.0000431
1.0000431
1.0000431
1.0000431
1.0000431
1.0000431
1.0000431
1.0000431
1.0000431
1.0000431
1.0000431
1.0000431
1.0000431
1.0000431
1.0000431
1.0000431
1.0000431
1.0000431
1.0000431
1.0000431
1.0000431
1.000027
1.0000271
1.0000271
1.0000271
1.0000271
1.0000271
1.0000271
1.0000271
1.0000271
1.0000271
1.0000271
1.0000271
1.0000271
1.0000271
1.0000271
1.0000271
1.0000271
1.0000271
1.0000271
1.0000271
1.0000271
1.0000271
1.0000271
1.0000271
1.0000271
1.0000271
1.0000271
1.0000271
1.0000271
1.0000271
1.0000271
1.0000271
1.0000271
1.0000271
1.0000271
1.0000271
1.0001189
1.0001189
1.0001189
1.000119
1.000119
1.0001191
1.0001191
1.0001191
1.0001192
1.0001192
1.0001193
1.0001193
1.0001193
1.0001193
1.0001194
1.0001194
1.0001194
1.0001195
1.0001195
1.0001195
1.0001195
1.0001195
1.0001196
1.0001196
1.0001196
1.0001196
1.0001196
1.0001196
1.0001196
1.0001196
1.0001197
1.0001197
1.0001197
1.0001197
1.0001197
1.0001197
1.0001034
1.0001034
1.0001035
1.0001035
1.0001035
1.0001035
1.0001036
1.0001036
1.0001036
1.0001036
1.0001037
1.0001037
1.0001037
1.0001037
1.0001038
1.0001038
1.0001038
1.0001038
1.0001038
1.0001038
1.0001039
1.0001039
1.0001039
1.0001039
1.0001039
1.0001039
1.0001039
1.0001039
1.0001039
1.0001039
1.000104
1.000104
1.000104
1.000104
1.000104
1.000104
1.0000902
1.0000902
1.0000902
1.0000903
1.0000903
1.0000903
1.0000903
1.0000903
1.0000904
1.0000904
1.0000904
1.0000904
1.0000904
1.0000904
1.0000905
1.0000905
1.0000905
1.0000905
1.0000905
1.0000905
1.0000905
1.0000905
1.0000905
1.0000905
1.0000906
1.0000906
1.0000906
1.0000906
1.0000906
1.0000906
1.0000906
1.0000906
1.0000906
1.0000906
1.0000906
1.0000906
1.0000791
1.0000791
1.0000792
1.0000792
1.0000792
1.0000792
1.0000792
1.0000792
1.0000793
1.0000793
1.0000793
1.0000793
1.0000793
1.0000793
1.0000793
1.0000793
1.0000793
1.0000793
1.0000793
1.0000794
1.0000794
1.0000794
1.0000794
1.0000794
1.0000794
1.0000794
1.0000794
1.0000794
1.0000794
1.0000794
1.0000794
1.0000794
1.0000794
1.0000794
1.0000794
1.0000794
1.0000697
1.0000697
1.0000697
1.0000697
1.0000698
1.0000698
1.0000698
1.0000698
1.0000698
1.0000698
1.0000698
1.0000698
1.0000698
1.0000698
1.0000698
1.0000698
1.0000699
1.0000699
1.0000699
1.0000699
1.0000699
1.0000699
1.0000699
1.0000699
1.0000699
1.0000699
1.0000699
1.0000699
1.0000699
1.0000699
1.0000699
1.0000699
1.0000699
1.0000699
1.0000699
1.0000699
1.0000617
1.0000617
1.0000617
1.0000618
1.0000618
1.0000618
1.0000618
1.0000618
1.0000618
1.0000618
1.0000618
1.0000618
1.0000618
1.0000618
1.0000618
1.0000618
1.0000618
1.0000618
1.0000618
1.0000618
1.0000618
1.0000618
1.0000618
1.0000619
1.0000619
1.0000619
1.0000619
1.0000619
1.0000619
1.0000619
1.0000619
1.0000619
1.0000619
1.0000619
1.0000619
1.0000619
1.0000549
1.0000549
1.0000549
1.0000549
1.0000549
1.0000549
1.0000549
1.0000549
1.0000549
1.000055
1.000055
1.000055
1.000055
1.000055
1.000055
1.000055
1.000055
1.000055
1.000055
1.000055
1.000055
1.000055
1.000055
1.000055
1.000055
1.000055
1.000055
1.000055
1.000055
1.000055
1.000055
1.000055
1.000055
1.000055
1.000055
1.000055
1.0000491
1.0000491
1.0000491
1.0000491
1.0000491
1.0000491
1.0000491
1.0000491
1.0000491
1.0000491
1.0000491
1.0000491
1.0000491
1.0000491
1.0000491
1.0000491
1.0000491
1.0000491
1.0000491
1.0000491
1.0000491
1.0000491
1.0000491
1.0000491
1.0000491
1.0000491
1.0000491
1.0000491
1.0000491
1.0000491
1.0000492
1.0000492
1.0000492
1.0000492
1.0000492
1.0000492
1.0000442
1.0000442
1.0000442
1.0000442
1.0000442
1.0000442
1.0000442
1.0000442
1.0000442
1.0000442
1.0000442
1.0000442
1.0000442
1.0000442
1.0000443
1.0000443
1.0000443
1.0000443
1.0000443
1.0000443
1.0000443
1.0000443
1.0000443
1.0000443
1.0000443
1.0000443
1.0000443
1.0000443
1.0000443
1.0000443
1.0000443
1.0000443
1.0000443
1.0000443
1.0000443
1.0000443
1.0001359
1.0001505
1.0001659
1.0001827
1.0002013
1.0002217
1.000244
1.0002683
1.0002948
1.0003235
1.0003547
1.0003884
1.0004247
1.0004637
1.0005052
1.0005493
1.0005956
1.000644
1.0006939
1.0007447
1.0007956
1.0008453
1.0008925
1.0009358
1.000973
1.0010023
1.0010215
1.0010286
1.0010217
1.0009991
1.0009593
1.0009024
1.0008279
1.0007361
1.0006291
1.000508
1.0003755
1.0002339
1.0000847
0.99993028
0.99977281
0.9996146
0.99945722
0.99930222
0.99914924
0.99900378
1.0001359
1.0001505
1.0001659
1.0001827
1.0002013
1.0002217
1.000244
1.0002683
1.0002948
1.0003235
1.0003547
1.0003884
1.0004247
1.0004637
1.0005052
1.0005493
1.0005956
1.000644
1.0006939
1.0007447
1.0007956
1.0008453
1.0008925
1.0009358
1.000973
1.0010023
1.0010216
1.0010286
1.0010217
1.0009991
1.0009593
1.0009024
1.0008279
1.0007361
1.0006291
1.000508
1.0003755
1.0002338
1.0000846
0.99993019
0.99977277
0.9996146
0.99945719
0.99930223
0.99914912
0.99900369
1.0001359
1.0001505
1.0001659
1.0001827
1.0002013
1.0002217
1.000244
1.0002683
1.0002948
1.0003235
1.0003547
1.0003884
1.0004247
1.0004637
1.0005052
1.0005493
1.0005956
1.000644
1.0006939
1.0007447
1.0007956
1.0008453
1.0008925
1.0009358
1.000973
1.0010023
1.0010216
1.0010287
1.0010218
1.0009992
1.0009594
1.0009025
1.000828
1.0007362
1.0006292
1.0005082
1.0003756
1.0002339
1.0000847
0.99993031
0.9997729
0.99961471
0.99945729
0.99930229
0.99914946
0.99900362
1.0001359
1.0001505
1.0001659
1.0001827
1.0002013
1.0002217
1.000244
1.0002683
1.0002947
1.0003235
1.0003547
1.0003884
1.0004247
1.0004636
1.0005052
1.0005492
1.0005956
1.000644
1.0006939
1.0007447
1.0007955
1.0008453
1.0008925
1.0009358
1.000973
1.0010024
1.0010217
1.0010288
1.0010219
1.0009993
1.0009596
1.0009027
1.0008282
1.0007365
1.0006295
1.0005085
1.0003759
1.0002342
1.0000849
0.99993051
0.99977312
0.99961495
0.99945752
0.99930252
0.99914984
0.99900356
1.0001359
1.0001505
1.0001658
1.0001827
1.0002013
1.0002217
1.000244
1.0002683
1.0002947
1.0003235
1.0003547
1.0003884
1.0004247
1.0004636
1.0005052
1.0005492
1.0005956
1.000644
1.0006939
1.0007447
1.0007955
1.0008453
1.0008925
1.0009358
1.0009731
1.0010025
1.0010218
1.001029
1.0010222
1.0009996
1.00096
1.0009032
1.0008287
1.0007371
1.00063
1.0005091
1.0003765
1.0002347
1.0000854
0.99993104
0.99977366
0.99961548
0.99945803
0.99930298
0.99915045
0.99900387
1.0001359
1.0001505
1.0001658
1.0001827
1.0002013
1.0002217
1.0002439
1.0002682
1.0002947
1.0003235
1.0003547
1.0003884
1.0004246
1.0004636
1.0005051
1.0005492
1.0005955
1.0006439
1.0006939
1.0007447
1.0007955
1.0008452
1.0008925
1.0009359
1.0009732
1.0010026
1.001022
1.0010293
1.0010226
1.0010002
1.0009606
1.0009039
1.0008295
1.000738
1.000631
1.0005101
1.0003775
1.0002357
1.0000864
0.99993197
0.99977459
0.99961638
0.9994589
0.99930379
0.99915139
0.99900449
1.0001359
1.0001505
1.0001658
1.0001827
1.0002013
1.0002217
1.0002439
1.0002682
1.0002947
1.0003234
1.0003546
1.0003883
1.0004246
1.0004635
1.0005051
1.0005491
1.0005955
1.0006439
1.0006938
1.0007446
1.0007954
1.0008452
1.0008925
1.0009359
1.0009733
1.0010028
1.0010224
1.0010298
1.0010232
1.001001
1.0009616
1.000905
1.0008308
1.0007395
1.0006326
1.0005118
1.0003793
1.0002374
1.0000881
0.99993362
0.99977623
0.99961798
0.99946045
0.99930526
0.99915292
0.99900575
1.0001359
1.0001505
1.0001658
1.0001827
1.0002013
1.0002216
1.0002439
1.0002682
1.0002946
1.0003234
1.0003546
1.0003883
1.0004245
1.0004635
1.000505
1.000549
1.0005954
1.0006438
1.0006937
1.0007445
1.0007954
1.0008452
1.0008925
1.000936
1.0009735
1.0010032
1.0010229
1.0010305
1.0010242
1.0010023
1.0009632
1.0009069
1.000833
1.0007419
1.0006353
1.0005146
1.0003822
1.0002402
1.0000909
0.99993639
0.99977896
0.99962063
0.999463
0.99930767
0.99915531
0.99900788
1.0001358
1.0001505
1.0001658
1.0001826
1.0002012
1.0002216
1.0002439
1.0002681
1.0002946
1.0003233
1.0003545
1.0003882
1.0004245
1.0004634
1.0005049
1.0005489
1.0005953
1.0006436
1.0006935
1.0007444
1.0007953
1.0008451
1.0008926
1.0009361
1.0009738
1.0010037
1.0010237
1.0010316
1.0010258
1.0010043
1.0009657
1.0009099
1.0008364
1.0007458
1.0006394
1.000519
1.0003867
1.0002448
1.0000954
0.99994089
0.99978338
0.99962492
0.99946715
0.99931163
0.99915914
0.99901144
1.0001358
1.0001505
1.0001658
1.0001826
1.0002012
1.0002216
1.0002438
1.0002681
1.0002945
1.0003233
1.0003544
1.0003881
1.0004244
1.0004632
1.0005047
1.0005487
1.0005951
1.0006434
1.0006934
1.0007442
1.0007951
1.000845
1.0008926
1.0009363
1.0009742
1.0010044
1.0010248
1.0010333
1.0010281
1.0010073
1.0009695
1.0009144
1.0008416
1.0007517
1.0006459
1.0005259
1.0003938
1.000252
1.0001026
0.99994799
0.99979033
0.99963167
0.99947365
0.99931785
0.9991651
0.99901706
1.0001358
1.0001504
1.0001657
1.0001826
1.0002012
1.0002215
1.0002438
1.000268
1.0002945
1.0003232
1.0003543
1.000388
1.0004242
1.0004631
1.0005045
1.0005485
1.0005948
1.0006432
1.0006931
1.0007439
1.0007949
1.0008449
1.0008926
1.0009365
1.0009748
1.0010055
1.0010265
1.0010358
1.0010315
1.0010117
1.0009751
1.0009211
1.0008495
1.0007606
1.0006556
1.0005363
1.0004047
1.000263
1.0001136
0.99995891
0.99980103
0.99964205
0.99948366
0.99932742
0.99917425
0.99902567
1.0001358
1.0001504
1.0001657
1.0001826
1.0002011
1.0002215
1.0002437
1.000268
1.0002944
1.0003231
1.0003542
1.0003878
1.000424
1.0004628
1.0005043
1.0005482
1.0005945
1.0006428
1.0006927
1.0007436
1.0007946
1.0008447
1.0008926
1.0009369
1.0009756
1.001007
1.0010289
1.0010393
1.0010364
1.0010181
1.0009832
1.000931
1.000861
1.0007737
1.0006701
1.0005517
1.0004208
1.0002795
1.0001302
0.99997526
0.99981705
0.9996576
0.99949866
0.99934179
0.99918803
0.99903882
1.0001358
1.0001504
1.0001657
1.0001825
1.0002011
1.0002214
1.0002436
1.0002679
1.0002943
1.0003229
1.000354
1.0003876
1.0004238
1.0004626
1.0005039
1.0005478
1.0005941
1.0006423
1.0006922
1.0007431
1.0007941
1.0008444
1.0008926
1.0009373
1.0009767
1.001009
1.0010322
1.0010442
1.0010432
1.0010272
1.0009947
1.000945
1.0008775
1.0007925
1.0006908
1.000574
1.0004441
1.0003033
1.0001542
0.99999909
0.99984041
0.99968027
0.9995205
0.99936269
0.99920795
0.99905758
1.0001357
1.0001504
1.0001656
1.0001825
1.000201
1.0002213
1.0002435
1.0002678
1.0002941
1.0003228
1.0003538
1.0003874
1.0004235
1.0004622
1.0005035
1.0005473
1.0005935
1.0006417
1.0006915
1.0007424
1.0007935
1.000844
1.0008926
1.0009378
1.0009782
1.0010117
1.0010366
1.0010508
1.0010524
1.0010395
1.0010105
1.0009643
1.0009004
1.0008187
1.0007198
1.0006053
1.000477
1.0003371
1.0001882
1.0000328
0.99987346
0.99971235
0.99955142
0.99939233
0.9992364
0.99908475
1.0001357
1.0001503
1.0001656
1.0001824
1.000201
1.0002213
1.0002434
1.0002676
1.000294
1.0003226
1.0003536
1.000387
1.0004231
1.0004617
1.0005029
1.0005467
1.0005927
1.0006408
1.0006906
1.0007415
1.0007927
1.0008435
1.0008925
1.0009385
1.00098
1.0010152
1.0010424
1.0010595
1.0010646
1.0010558
1.0010315
1.0009902
1.0009312
1.000854
1.0007592
1.0006479
1.0005218
1.0003832
1.0002348
1.0000791
0.99991875
0.99975623
0.9995936
0.99943256
0.99927465
0.99912066
1.0001357
1.0001503
1.0001656
1.0001824
1.0002009
1.0002212
1.0002433
1.0002675
1.0002938
1.0003223
1.0003533
1.0003867
1.0004226
1.0004612
1.0005023
1.0005459
1.0005918
1.0006398
1.0006895
1.0007404
1.0007917
1.0008427
1.0008923
1.0009392
1.0009822
1.0010195
1.0010495
1.0010703
1.0010799
1.0010766
1.0010583
1.0010235
1.000971
1.0009001
1.0008108
1.0007039
1.0005811
1.0004444
1.0002965
1.0001404
0.99997873
0.99981427
0.99964938
0.99948584
0.9993256
0.99916909
1.0001357
1.0001502
1.0001655
1.0001823
1.0002008
1.0002211
1.0002432
1.0002673
1.0002935
1.000322
1.0003529
1.0003862
1.0004221
1.0004605
1.0005015
1.0005449
1.0005907
1.0006385
1.0006881
1.000739
1.0007904
1.0008418
1.000892
1.00094
1.0009847
1.0010245
1.0010579
1.0010832
1.0010985
1.0011018
1.0010911
1.0010646
1.0010205
1.0009578
1.0008758
1.000775
1.0006565
1.0005225
1.0003755
1.0002187
1.0000552
0.999888
0.9997198
0.99955253
0.99938856
0.99922778
1.0001356
1.0001502
1.0001655
1.0001822
1.0002007
1.0002209
1.000243
1.0002671
1.0002933
1.0003217
1.0003525
1.0003857
1.0004214
1.0004597
1.0005005
1.0005438
1.0005894
1.0006371
1.0006865
1.0007373
1.0007889
1.0008405
1.0008915
1.0009408
1.0009874
1.0010301
1.0010674
1.0010979
1.0011198
1.001131
1.0011296
1.0011131
1.0010796
1.0010271
1.0009546
1.0008617
1.0007491
1.0006186
1.0004728
1.0003152
1.0001492
0.99997831
0.99980579
0.99963384
0.99946555
0.99930018
1.0001356
1.0001502
1.0001654
1.0001821
1.0002006
1.0002208
1.0002428
1.0002669
1.000293
1.0003214
1.000352
1.0003851
1.0004207
1.0004588
1.0004994
1.0005425
1.0005879
1.0006354
1.0006847
1.0007354
1.000787
1.0008391
1.0008908
1.0009414
1.0009901
1.0010359
1.0010776
1.0011138
1.001143
1.0011633
1.0011724
1.0011678
1.0011468
1.0011069
1.0010461
1.0009632
1.0008582
1.0007324
1.0005883
1.0004295
1.0002601
1.000084
0.99990542
0.99972673
0.99955193
0.99937942
1.0001356
1.0001501
1.0001653
1.000182
1.0002005
1.0002207
1.0002427
1.0002666
1.0002927
1.000321
1.0003515
1.0003845
1.0004199
1.0004579
1.0004983
1.0005411
1.0005862
1.0006335
1.0006826
1.0007332
1.000785
1.0008373
1.0008898
1.0009418
1.0009926
1.0010416
1.0010878
1.0011301
1.0011671
1.0011971
1.0012178
1.0012263
1.0012196
1.0011944
1.0011477
1.0010772
1.0009818
1.0008621
1.0007204
1.0005601
1.0003861
1.0002033
1.0000168
0.99982971
0.99964731
0.99946718
1.0001355
1.0001501
1.0001653
1.000182
1.0002004
1.0002205
1.0002425
1.0002664
1.0002924
1.0003206
1.000351
1.0003839
1.0004191
1.0004569
1.0004971
1.0005397
1.0005845
1.0006315
1.0006804
1.0007309
1.0007827
1.0008354
1.0008886
1.0009419
1.0009948
1.0010468
1.0010975
1.0011458
1.0011908
1.0012307
1.0012634
1.001286
1.0012949
1.0012862
1.0012557
1.0011999
1.0011164
1.0010044
1.0008657
1.0007037
1.0005239
1.0003319
1.0001348
0.99993626
0.99974318
0.99955216
1.0001355
1.00015
1.0001652
1.0001819
1.0002003
1.0002203
1.0002423
1.0002661
1.000292
1.0003201
1.0003505
1.0003832
1.0004183
1.0004559
1.0004958
1.0005382
1.0005828
1.0006295
1.0006782
1.0007285
1.0007803
1.0008333
1.0008871
1.0009416
1.0009964
1.0010514
1.0011062
1.0011603
1.0012129
1.0012626
1.0013073
1.0013441
1.0013693
1.0013781
1.0013655
1.0013264
1.001257
1.0011546
1.0010203
1.0008562
1.0006693
1.0004659
1.0002553
1.0000426
0.9998371
0.99963462
1.0001354
1.00015
1.0001651
1.0001818
1.0002001
1.0002202
1.0002421
1.0002659
1.0002917
1.0003197
1.00035
1.0003825
1.0004175
1.0004548
1.0004946
1.0005367
1.000581
1.0006275
1.000676
1.0007262
1.0007779
1.0008311
1.0008855
1.000941
1.0009975
1.0010552
1.0011137
1.0011731
1.0012327
1.0012914
1.0013475
1.0013981
1.0014394
1.0014662
1.0014725
1.0014518
1.0013985
1.0013077
1.0011791
1.0010131
1.000818
1.0006001
1.0003726
1.0001416
0.99992004
0.99970261
1.0001354
1.0001499
1.000165
1.0001817
1.0002
1.00022
1.0002419
1.0002656
1.0002914
1.0003193
1.0003494
1.0003819
1.0004167
1.0004539
1.0004934
1.0005353
1.0005794
1.0006256
1.0006738
1.0007238
1.0007756
1.0008289
1.0008837
1.0009401
1.0009981
1.001058
1.0011199
1.0011839
1.0012497
1.0013166
1.0013831
1.0014465
1.001503
1.0015473
1.0015728
1.0015714
1.0015357
1.0014581
1.0013371
1.0011696
1.0009658
1.0007304
1.0004832
1.0002296
0.99998971
0.99975656
1.0001353
1.0001498
1.000165
1.0001816
1.0001999
1.0002199
1.0002417
1.0002654
1.0002911
1.0003189
1.000349
1.0003813
1.0004159
1.0004529
1.0004923
1.0005339
1.0005778
1.0006238
1.0006718
1.0007217
1.0007733
1.0008267
1.0008819
1.000939
1.0009983
1.0010601
1.0011248
1.0011927
1.0012638
1.0013378
1.0014134
1.0014883
1.0015588
1.0016195
1.0016635
1.0016813
1.0016642
1.0016012
1.0014897
1.0013213
1.0011091
1.0008532
1.0005838
1.0003023
1.0000412
0.99978912
1.0001353
1.0001498
1.0001649
1.0001815
1.0001998
1.0002197
1.0002415
1.0002651
1.0002908
1.0003185
1.0003485
1.0003807
1.0004152
1.0004521
1.0004912
1.0005327
1.0005763
1.0006221
1.0006699
1.0007196
1.0007712
1.0008247
1.0008802
1.0009379
1.0009982
1.0010616
1.0011286
1.0011997
1.0012753
1.0013553
1.0014387
1.0015235
1.0016064
1.0016819
1.0017431
1.0017794
1.0017808
1.0017331
1.0016328
1.0014644
1.0012449
1.0009663
1.0006734
1.0003584
1.0000751
0.99980277
1.0001352
1.0001497
1.0001648
1.0001814
1.0001997
1.0002196
1.0002413
1.0002649
1.0002905
1.0003182
1.000348
1.0003801
1.0004145
1.0004513
1.0004903
1.0005315
1.000575
1.0006206
1.0006682
1.0007178
1.0007693
1.0008228
1.0008785
1.0009367
1.0009978
1.0010625
1.0011314
1.0012052
1.0012845
1.0013695
1.0014594
1.0015526
1.0016461
1.0017346
1.0018112
1.0018646
1.0018838
1.0018514
1.0017634
1.0015961
1.0013709
1.0010681
1.0007518
1.0003975
1.0000919
0.9997954
1.0001352
1.0001497
1.0001647
1.0001813
1.0001995
1.0002194
1.0002411
1.0002647
1.0002902
1.0003178
1.0003476
1.0003796
1.0004139
1.0004505
1.0004894
1.0005305
1.0005738
1.0006192
1.0006667
1.0007161
1.0007676
1.0008211
1.000877
1.0009356
1.0009974
1.0010631
1.0011335
1.0012095
1.0012918
1.0013808
1.0014761
1.0015763
1.0016786
1.0017782
1.0018684
1.0019371
1.0019727
1.001955
1.00188
1.0017145
1.0014853
1.0011581
1.0008197
1.0004212
1.000095
0.9997701
1.0001351
1.0001496
1.0001647
1.0001812
1.0001994
1.0002193
1.0002409
1.0002644
1.0002899
1.0003175
1.0003472
1.0003792
1.0004134
1.0004498
1.0004886
1.0005295
1.0005727
1.000618
1.0006653
1.0007146
1.000766
1.0008196
1.0008756
1.0009345
1.0009968
1.0010634
1.001135
1.0012127
1.0012975
1.0013898
1.0014894
1.0015954
1.0017051
1.001814
1.0019158
1.0019978
1.0020481
1.002044
1.0019817
1.0018188
1.001587
1.0012364
1.0008778
1.000432
1.000087
0.99972998
1.0001351
1.0001495
1.0001646
1.0001811
1.0001993
1.0002192
1.0002408
1.0002642
1.0002897
1.0003172
1.0003469
1.0003787
1.0004128
1.0004492
1.0004878
1.0005287
1.0005717
1.0006169
1.000664
1.0007133
1.0007646
1.0008182
1.0008743
1.0009334
1.0009962
1.0010635
1.0011361
1.0012152
1.001302
1.0013969
1.0015001
1.0016107
1.0017265
1.0018431
1.0019546
1.002048
1.0021111
1.0021193
1.0020689
1.0019091
1.0016762
1.0013041
1.0009276
1.0004334
1.000071
0.99968089
1.000135
1.0001495
1.0001645
1.000181
1.0001992
1.000219
1.0002406
1.000264
1.0002895
1.0003169
1.0003465
1.0003783
1.0004123
1.0004486
1.0004872
1.0005279
1.0005708
1.0006158
1.0006629
1.0007121
1.0007634
1.000817
1.0008732
1.0009325
1.0009956
1.0010635
1.0011369
1.0012172
1.0013055
1.0014026
1.0015086
1.001623
1.0017437
1.0018667
1.0019862
1.0020893
1.0021633
1.0021822
1.0021428
1.001986
1.0017529
1.0013616
1.0009697
1.0004273
1.0000525
0.99963125
1.000135
1.0001494
1.0001644
1.0001809
1.0001991
1.0002189
1.0002404
1.0002638
1.0002892
1.0003166
1.0003462
1.0003779
1.0004119
1.0004481
1.0004865
1.0005272
1.00057
1.0006149
1.0006619
1.000711
1.0007623
1.0008159
1.0008722
1.0009317
1.0009951
1.0010634
1.0011375
1.0012187
1.0013083
1.0014071
1.0015155
1.001633
1.0017578
1.0018858
1.0020121
1.0021231
1.0022062
1.0022343
1.0022042
1.0020502
1.0018169
1.0014086
1.001003
1.000415
1.000036
0.99959117
1.0001349
1.0001493
1.0001644
1.0001808
1.000199
1.0002187
1.0002403
1.0002637
1.000289
1.0003164
1.0003459
1.0003776
1.0004115
1.0004476
1.000486
1.0005265
1.0005693
1.0006141
1.000661
1.0007101
1.0007613
1.0008149
1.0008713
1.0009309
1.0009946
1.0010632
1.0011379
1.0012198
1.0013105
1.0014107
1.001521
1.0016409
1.0017689
1.0019013
1.0020331
1.0021508
1.0022415
1.0022774
1.0022556
1.0021044
1.0018716
1.0014495
1.0010327
1.0004065
1.0000161
0.99955164
1.0001349
1.0001493
1.0001643
1.0001807
1.0001989
1.0002186
1.0002401
1.0002635
1.0002888
1.0003161
1.0003456
1.0003772
1.000411
1.0004471
1.0004854
1.0005259
1.0005686
1.0006133
1.0006602
1.0007092
1.0007604
1.000814
1.0008704
1.0009302
1.0009941
1.0010631
1.0011382
1.0012208
1.0013123
1.0014138
1.0015256
1.0016476
1.0017784
1.001914
1.0020501
1.0021731
1.0022703
1.002313
1.0022991
1.0021516
1.0019208
1.0014885
1.0010632
1.0004002
0.99999353
0.99950205
1.0001348
1.0001492
1.0001642
1.0001806
1.0001988
1.0002185
1.00024
1.0002633
1.0002886
1.0003159
1.0003453
1.0003769
1.0004107
1.0004467
1.0004849
1.0005253
1.0005679
1.0006127
1.0006595
1.0007084
1.0007596
1.0008132
1.0008697
1.0009296
1.0009936
1.0010629
1.0011384
1.0012215
1.0013137
1.0014161
1.0015291
1.0016527
1.0017855
1.001924
1.0020641
1.0021919
1.0022941
1.0023419
1.0023326
1.0021858
1.0019531
1.0015092
1.0010744
1.0003802
0.99998194
0.99946572
1.0001348
1.0001491
1.0001641
1.0001805
1.0001986
1.0002183
1.0002398
1.0002631
1.0002883
1.0003156
1.000345
1.0003765
1.0004103
1.0004462
1.0004844
1.0005248
1.0005673
1.000612
1.0006587
1.0007076
1.0007588
1.0008125
1.000869
1.000929
1.0009932
1.0010628
1.0011386
1.0012222
1.0013151
1.0014184
1.0015327
1.0016579
1.0017928
1.0019343
1.0020776
1.0022085
1.0023138
1.0023644
1.002357
1.002208
1.0019703
1.0015129
1.0010684
1.0003496
0.9999912
0.99950474
0.99848838
0.99848846
0.99848863
0.99848896
0.99848931
0.99848966
0.99848952
0.99848856
0.9984849
0.99847657
0.99846208
0.99844207
0.99841397
0.99835565
0.99826545
0.99816592
0.99812045
0.99810408
0.99811467
0.99813219
0.9981494
0.99816241
0.99816101
0.99817165
0.9981989
0.99823334
0.99826678
0.99829622
0.99832342
0.99834827
0.99836745
0.99838226
0.99839596
0.99840936
0.99841913
0.99842696
0.99842641
0.99842648
0.99842652
0.99842665
0.99842655
0.99842628
0.99842551
0.99842408
0.99842138
0.99841711
0.99840938
0.99839756
0.99837993
0.99835401
0.99833909
0.9983002
0.99827053
0.99825453
0.99824332
0.99824232
0.99824216
0.99824181
0.99823808
0.99823877
0.99823902
0.99823625
0.99823164
0.99822852
0.99822608
0.99822474
0.9982286
0.99823428
0.99824067
0.99824688
0.99825078
0.998254
0.99837716
0.99837727
0.99837727
0.99837733
0.99837724
0.99837702
0.9983763
0.99837491
0.99837234
0.99836807
0.99836084
0.99835106
0.99833642
0.99831438
0.99829097
0.99826088
0.99823504
0.99822205
0.99821328
0.99821136
0.99821114
0.99821195
0.99821201
0.99821542
0.99822078
0.99822598
0.99823046
0.99823492
0.99823975
0.99824413
0.99824787
0.99825062
0.99825201
0.99825255
0.99825239
0.99825254
0.99833417
0.9983343
0.9983343
0.99833446
0.99833444
0.99833437
0.99833406
0.99833323
0.99833148
0.99832845
0.99832333
0.99831695
0.99830686
0.99829304
0.99827867
0.99826357
0.99824357
0.99823602
0.99822846
0.99822391
0.99822125
0.99822005
0.99821823
0.99821634
0.99821412
0.99821209
0.99821087
0.99821024
0.99821009
0.99821053
0.99821168
0.99821305
0.99821431
0.99821543
0.99821654
0.99821762
0.9982963
0.99829645
0.99829646
0.99829665
0.99829666
0.99829666
0.99829651
0.99829609
0.99829494
0.99829281
0.99828918
0.99828479
0.99827723
0.99826889
0.99825604
0.99824778
0.99822925
0.99822379
0.99821686
0.99821323
0.99821095
0.99821012
0.99820989
0.99821029
0.99821019
0.99820951
0.9982082
0.99820675
0.99820546
0.99820436
0.99820345
0.99820275
0.9982024
0.99820217
0.99820202
0.99820234
0.99826224
0.99826241
0.99826242
0.99826264
0.99826269
0.9982628
0.99826277
0.99826262
0.99826213
0.99826097
0.99825873
0.99825628
0.99825123
0.99824769
0.99823861
0.99823775
0.99822294
0.99822049
0.99821389
0.99820994
0.9982064
0.99820456
0.99820344
0.99820251
0.99820141
0.99820021
0.99819894
0.9981976
0.99819633
0.99819522
0.99819431
0.99819356
0.99819302
0.99819274
0.9981926
0.99819276
0.99823108
0.99823126
0.99823128
0.99823152
0.99823157
0.99823183
0.99823186
0.99823185
0.99823167
0.99823114
0.99823011
0.99822892
0.99822577
0.99822461
0.99821727
0.99822107
0.99820793
0.99820678
0.99820075
0.99819704
0.99819311
0.99819091
0.99818979
0.99818942
0.99818913
0.9981887
0.9981881
0.99818739
0.99818666
0.99818602
0.99818551
0.99818513
0.99818492
0.99818487
0.99818491
0.99818516
0.9982019
0.99820211
0.99820214
0.99820241
0.99820251
0.99820287
0.99820301
0.99820331
0.99820332
0.99820323
0.99820296
0.99820263
0.99820136
0.99820216
0.99819655
0.99820456
0.99819298
0.99819244
0.9981875
0.99818392
0.99817997
0.99817746
0.99817591
0.99817528
0.99817508
0.99817499
0.99817487
0.99817471
0.99817452
0.99817434
0.99817421
0.99817415
0.99817411
0.99817435
0.99817456
0.9981749
0.99817367
0.9981739
0.99817395
0.99817424
0.9981744
0.99817481
0.99817506
0.9981756
0.99817583
0.99817626
0.9981763
0.99817692
0.99817652
0.99817941
0.99817505
0.99818644
0.99817732
0.99817621
0.99817224
0.99816822
0.99816436
0.99816168
0.99815996
0.99815926
0.99815915
0.99815964
0.99815996
0.9981603
0.99816042
0.99816065
0.99816064
0.99816092
0.99816091
0.99816135
0.99816148
0.9981619
0.99814599
0.99814624
0.9981463
0.99814663
0.99814683
0.99814729
0.99814767
0.99814832
0.99814877
0.9981496
0.99814992
0.9981514
0.99815138
0.99815503
0.99815234
0.99816441
0.99816029
0.99815872
0.99815619
0.99815202
0.99814836
0.99814567
0.99814382
0.99814299
0.99814279
0.99814337
0.99814401
0.99814471
0.99814507
0.99814567
0.99814581
0.99814632
0.99814645
0.99814697
0.99814719
0.99814767
0.99811846
0.99811874
0.99811881
0.99811917
0.99811941
0.99811991
0.99812043
0.99812113
0.99812194
0.99812282
0.99812383
0.99812556
0.99812646
0.99813012
0.99812889
0.99814053
0.99814108
0.99813946
0.99813851
0.99813459
0.99813121
0.99812863
0.99812682
0.99812596
0.99812574
0.99812631
0.99812709
0.99812804
0.9981286
0.99812936
0.99812972
0.99813031
0.99813061
0.99813115
0.99813145
0.99813198
0.99809079
0.99809111
0.99809119
0.99809159
0.99809188
0.99809243
0.99809305
0.99809387
0.99809491
0.99809589
0.99809754
0.99809922
0.99810164
0.998105
0.99810594
0.99811528
0.99812168
0.99811925
0.99811995
0.99811638
0.99811351
0.9981111
0.99810942
0.99810863
0.99810843
0.99810896
0.99810974
0.99811078
0.99811144
0.99811228
0.99811275
0.99811339
0.99811378
0.99811433
0.99811469
0.99811526
0.99806275
0.9980631
0.99806319
0.99806364
0.99806397
0.99806459
0.9980653
0.99806625
0.99806742
0.99806874
0.99807067
0.99807276
0.9980761
0.99807914
0.99808369
0.99809003
0.99810104
0.99809795
0.99810064
0.99809743
0.99809515
0.99809288
0.99809134
0.99809064
0.99809047
0.99809105
0.99809177
0.99809283
0.99809351
0.9980944
0.99809492
0.99809559
0.99809602
0.9980966
0.99809697
0.99809757
0.99803416
0.99803455
0.99803466
0.99803515
0.99803554
0.99803623
0.99803704
0.99803812
0.99803946
0.99804105
0.99804328
0.9980458
0.99804991
0.99805297
0.99806058
0.99806449
0.99807891
0.99807533
0.99807996
0.99807727
0.99807568
0.99807369
0.99807243
0.99807194
0.99807187
0.99807264
0.9980733
0.99807444
0.99807512
0.99807609
0.99807663
0.99807738
0.99807782
0.99807846
0.99807886
0.9980795
0.99800475
0.99800518
0.9980053
0.99800585
0.99800629
0.99800707
0.99800797
0.99800919
0.9980107
0.99801255
0.99801508
0.99801805
0.99802272
0.99802618
0.99803585
0.99803797
0.99805564
0.99805225
0.99805862
0.99805662
0.99805548
0.9980537
0.99805263
0.99805229
0.99805229
0.99805323
0.99805389
0.99805512
0.99805581
0.99805688
0.99805741
0.99805826
0.99805869
0.99805939
0.9980598
0.99806047
0.99797438
0.99797486
0.997975
0.99797561
0.9979761
0.99797695
0.99797795
0.99797931
0.997981
0.9979831
0.99798592
0.99798937
0.99799448
0.99799858
0.99800947
0.99801075
0.99803177
0.99802898
0.99803649
0.99803532
0.99803454
0.99803309
0.99803226
0.99803205