/*--------------------------------*- C++ -*----------------------------------*\
| =========                 |                                                 |
| \\      /  F ield         | OpenFOAM: The Open Source CFD Toolbox           |
|  \\    /   O peration     | Version:  v2006                                 |
|   \\  /    A nd           | Website:  www.openfoam.com                      |
|    \\/     M anipulation  |                                                 |
\*---------------------------------------------------------------------------*/
FoamFile
{
    version     2.0;
    format      ascii;
    class       surfaceScalarField;
    location    "6000";
    object      phi;
}
// * * * * * * * * * * * * * * * * * * * * * * * * * * * * * * * * * * * * * //

dimensions      [1 0 -1 0 0 0 0];
oriented        oriented;


internalField   nonuniform List<scalar> 
42047
(
3.3882617e-05
-0.00051531128
0.00048142861
5.5210055e-05
-0.0004652177
0.00044388937
6.8125403e-05
-0.00042533673
0.00041242148
7.5233516e-05
-0.00039279862
0.00038569032
7.823886e-05
-0.00036582724
0.0003628218
7.8296655e-05
-0.00034324652
0.00034318945
7.6204028e-05
-0.00032422993
0.00032632209
7.2527818e-05
-0.00030814336
0.00031182071
6.7668599e-05
-0.00029452162
0.00029938016
6.1925175e-05
-0.00028300116
0.00028874546
5.5513256e-05
-0.0002733008
0.00027971184
4.860044e-05
-0.00026520277
0.00027211576
4.1309957e-05
-0.00025853493
0.00026582456
3.3739714e-05
-0.00025316089
0.00026073062
2.5965458e-05
-0.00024897563
0.00025674909
1.8049722e-05
-0.00024590096
0.0002538158
1.004499e-05
-0.00024388042
0.00025188447
1.9968022e-06
-0.00024287778
0.00025092505
-6.0513022e-06
-0.00024287536
0.00025092294
-1.405778e-05
-0.00024387396
0.00025187966
-2.1974949e-05
-0.00024589562
0.00025381247
-2.9750656e-05
-0.00024897463
0.00025674957
-3.7321658e-05
-0.0002531625
0.00026073339
-4.4612978e-05
-0.00025853615
0.00026582669
-5.1526925e-05
-0.00026520096
0.00027211489
-5.7940078e-05
-0.00027329498
0.00027970749
-6.3686247e-05
-0.00028299267
0.00028873889
-6.8548399e-05
-0.00029451196
0.00029937369
-7.2230132e-05
-0.00030813721
0.00031181902
-7.4326239e-05
-0.00032423238
0.00032632825
-7.4271731e-05
-0.00034325469
0.00034320023
-7.1271836e-05
-0.00036583495
0.00036283496
-6.4172042e-05
-0.00039281431
0.00038571457
-5.1259535e-05
-0.00042536503
0.00041245248
-2.9911901e-05
-0.00046517145
0.00044382386
-0.00051476259
0.00048081576
4.0348755e-06
3.3951929e-05
-0.00054926398
5.5311112e-05
-0.00048658114
6.8239037e-05
-0.00043826433
7.5337314e-05
-0.00039990166
7.8326599e-05
-0.00036881506
7.8354527e-05
-0.00034327871
7.623467e-05
-0.00032210834
7.2521493e-05
-0.00030443273
6.7628539e-05
-0.00028962709
6.1846048e-05
-0.00027721906
5.5397138e-05
-0.00026685064
4.8445072e-05
-0.00025824985
4.1115751e-05
-0.00025120471
3.3505505e-05
-0.00024554997
2.5691344e-05
-0.00024116063
1.7734569e-05
-0.00023794461
9.6900496e-06
-0.00023583489
1.6001727e-06
-0.00023478912
-6.4874136e-06
-0.00023478675
-1.4535669e-05
-0.00023582672
-2.2492879e-05
-0.0002379373
-3.0309238e-05
-0.0002411586
-3.7919753e-05
-0.00024555096
-4.5250085e-05
-0.00025120568
-5.2202057e-05
-0.00025824812
-5.8652267e-05
-0.0002668444
-6.4434242e-05
-0.00027721006
-6.9329825e-05
-0.00028961591
-7.3043309e-05
-0.0003044233
-7.5167454e-05
-0.00032210779
-7.5135326e-05
-0.00034328653
-7.2149616e-05
-0.00036882031
-6.5053221e-05
-0.00039991057
-5.2128264e-05
-0.00043828972
-3.0744155e-05
-0.00048655548
-0.000548782
3.2753944e-06
3.4030971e-05
-0.00058329543
5.5435382e-05
-0.0005079855
6.8380036e-05
-0.00045120929
7.5481717e-05
-0.00040700375
7.8457218e-05
-0.00037179036
7.846858e-05
-0.00034329147
7.632346e-05
-0.00031996258
7.2582413e-05
-0.00030069369
6.7657816e-05
-0.00028470133
6.1840961e-05
-0.00027140384
5.5357411e-05
-0.00026036592
4.8368735e-05
-0.00025126153
4.1003519e-05
-0.00024383847
3.3357009e-05
-0.00023790243
2.5505819e-05
-0.00023330861
1.7514003e-05
-0.00022995131
9.4323502e-06
-0.00022775257
1.3079754e-06
-0.00022666367
-6.8167742e-06
-0.00022666158
-1.490048e-05
-0.00022774236
-2.2895638e-05
-0.00022994197
-3.0747648e-05
-0.00023330594
-3.8395426e-05
-0.00023790316
-4.5760759e-05
-0.00024383963
-5.2748161e-05
-0.00025126081
-5.9231968e-05
-0.00026036001
-6.5046726e-05
-0.00027139542
-6.9972131e-05
-0.00028469017
-7.3713505e-05
-0.00030068205
-7.5862443e-05
-0.00031995871
-7.5849098e-05
-0.00034329997
-7.2873823e-05
-0.00037179555
-6.5776862e-05
-0.00040700758
-5.2836049e-05
-0.00045123051
-3.1411847e-05
-0.00050797971
-0.00058287738
2.6835555e-06
3.4100838e-05
-0.00061739377
5.5549292e-05
-0.00052942969
6.85138e-05
-0.00046417227
7.5619083e-05
-0.0004141046
7.8584693e-05
-0.00037475528
7.8584732e-05
-0.00034328741
7.641718e-05
-0.00031779508
7.2655385e-05
-0.0002969288
6.7700767e-05
-0.00027974702
6.1856666e-05
-0.00026555807
5.5339522e-05
-0.00025384911
4.831865e-05
-0.00024424014
4.0918375e-05
-0.0002364385
3.3236631e-05
-0.00023022049
2.5349488e-05
-0.00022542172
1.7321629e-05
-0.000221923
9.2046063e-06
-0.00021963576
1.0453976e-06
-0.00021850376
-7.1150415e-06
-0.00021850138
-1.5233664e-05
-0.00021962307
-2.3263767e-05
-0.00022191212
-3.1150277e-05
-0.00022541895
-3.8832298e-05
-0.0002302214
-4.6231427e-05
-0.00023644019
-5.3251278e-05
-0.00024424119
-5.9767127e-05
-0.00025384395
-6.5611899e-05
-0.00026555086
-7.0564817e-05
-0.00027973709
-7.4330853e-05
-0.00029691619
-7.6502946e-05
-0.0003177865
-7.6507474e-05
-0.00034329558
-7.3540233e-05
-0.00037476271
-6.6441831e-05
-0.00041410612
-5.3485189e-05
-0.00046418707
-3.202043e-05
-0.00052944456
-0.00061704789
2.1501802e-06
3.4160283e-05
-0.00065155507
5.5632175e-05
-0.00055090267
6.8612644e-05
-0.0004771536
7.5707919e-05
-0.00042120064
7.8666656e-05
-0.00037771468
7.8651152e-05
-0.00034327202
7.6465882e-05
-0.00031561043
7.268214e-05
-0.00029314449
6.7705497e-05
-0.00027477086
6.1836646e-05
-0.00025968839
5.5294265e-05
-0.0002473071
4.8246712e-05
-0.00023719207
4.0819202e-05
-0.00022901123
3.3109543e-05
-0.00022251067
2.5193716e-05
-0.00021750603
1.7135176e-05
-0.00021386435
8.9886606e-06
-0.00021148925
7.9966339e-07
-0.00021031453
-7.3931521e-06
-0.00021030846
-1.5541693e-05
-0.00021147421
-2.3600034e-05
-0.0002138536
-3.151562e-05
-0.00021750303
-3.9225349e-05
-0.00022251145
-4.6651894e-05
-0.00022901331
-5.3698671e-05
-0.00023719416
-6.0240193e-05
-0.00024730208
-6.6109058e-05
-0.0002596817
-7.1083769e-05
-0.00027476203
-7.4868282e-05
-0.0002931314
-7.70617e-05
-0.00031559274
-7.7085732e-05
-0.0003432713
-7.4123451e-05
-0.00037772463
-6.7027052e-05
-0.00042120239
-5.4063005e-05
-0.00047715072
-3.2564771e-05
-0.00055094271
-0.00065127695
1.6645369e-06
3.425816e-05
-0.00068581292
5.5759676e-05
-0.00057240414
6.8779344e-05
-0.00049017285
7.5878159e-05
-0.00042829951
7.8846397e-05
-0.00038068253
7.8830663e-05
-0.00034325642
7.6633058e-05
-0.00031341253
7.2837992e-05
-0.00028934951
6.7847885e-05
-0.0002697806
6.1960233e-05
-0.00025380067
5.5400203e-05
-0.00024074707
4.8329848e-05
-0.00023012158
4.088054e-05
-0.00022156193
3.3149516e-05
-0.00021477977
2.5211989e-05
-0.00020956847
1.7126802e-05
-0.00020577965
8.9543924e-06
-0.00020331679
7.4261313e-07
-0.00020210335
-7.4804915e-06
-0.00020208524
-1.5651895e-05
-0.00020330326
-2.3731317e-05
-0.00020577404
-3.1671123e-05
-0.0002095635
-3.940268e-05
-0.00021477976
-4.6849374e-05
-0.00022156675
-5.3921196e-05
-0.00023012222
-6.0480248e-05
-0.0002407431
-6.6366131e-05
-0.00025379573
-7.1353994e-05
-0.00026977423
-7.5147581e-05
-0.00028933769
-7.735619e-05
-0.0003133842
-7.7399349e-05
-0.00034322799
-7.4425765e-05
-0.00038069829
-6.7321975e-05
-0.00042830594
-5.4349157e-05
-0.00049012368
-3.2785809e-05
-0.0005725058
-0.00068559763
1.5347103e-06
3.4376576e-05
-0.00072019013
5.5973993e-05
-0.00059400211
6.9035249e-05
-0.00050323481
7.6136697e-05
-0.0004354015
7.9101892e-05
-0.00038364835
7.9039204e-05
-0.00034319428
7.6817693e-05
-0.00031119153
7.2966591e-05
-0.00028549899
6.7930579e-05
-0.000264745
6.1981647e-05
-0.00024785228
5.5358197e-05
-0.00023412396
4.8234031e-05
-0.00022299785
4.0724711e-05
-0.00021405291
3.2931243e-05
-0.00020698661
2.4932017e-05
-0.00020156952
1.6789273e-05
-0.00019763714
8.5674699e-06
-0.00019509527
3.0061176e-07
-0.00019383671
-7.9590596e-06
-0.00019382585
-1.6187755e-05
-0.00019507478
-2.4326845e-05
-0.00019763524
-3.2320629e-05
-0.00020156992
-4.0113915e-05
-0.00020698677
-4.7616308e-05
-0.00021406457
-5.4734138e-05
-0.00022300471
-6.1352912e-05
-0.00023412453
-6.7299478e-05
-0.00024784951
-7.2334412e-05
-0.0002647395
-7.6178112e-05
-0.00028549438
-7.8390692e-05
-0.00031117183
-7.8454171e-05
-0.00034316494
-7.5499519e-05
-0.00038365318
-6.8351523e-05
-0.00043545434
-5.5332216e-05
-0.00050314319
-3.3698952e-05
-0.00059413944
-0.00072006877
7.7211538e-07
3.4220725e-05
-0.00075441074
5.5965493e-05
-0.0006157467
6.8967316e-05
-0.00051623651
7.6155226e-05
-0.0004425892
7.9095459e-05
-0.00038658846
7.9079596e-05
-0.00034317816
7.684771e-05
-0.00030895952
7.300426e-05
-0.00028165526
6.7950305e-05
-0.00025969093
6.2024202e-05
-0.00024192588
5.5436254e-05
-0.00022753591
4.8342285e-05
-0.00021590357
4.0861356e-05
-0.0002065719
3.3093594e-05
-0.00019921852
2.5117773e-05
-0.00019359365
1.699324e-05
-0.00018951228
8.7428759e-06
-0.00018684487
4.3222391e-07
-0.00018552571
-7.8580537e-06
-0.0001855356
-1.6087069e-05
-0.00018684543
-2.4234041e-05
-0.00018948835
-3.2253286e-05
-0.00019355037
-4.0076087e-05
-0.00019916414
-4.7621638e-05
-0.00020651873
-5.4763939e-05
-0.00021586269
-6.1374056e-05
-0.00022751419
-6.7314579e-05
-0.00024190936
-7.2380962e-05
-0.00025967299
-7.6242102e-05
-0.0002816337
-7.8480776e-05
-0.00030893316
-7.8513004e-05
-0.00034313321
-7.5652696e-05
-0.00038651362
-6.8567167e-05
-0.00044254036
-5.5444045e-05
-0.00051626652
-3.3949221e-05
-0.00061563469
-0.00075435983
3.4173339e-07
3.4307674e-05
5.6093812e-05
6.9112347e-05
7.633687e-05
7.9286773e-05
7.9308486e-05
7.7079481e-05
7.3260981e-05
6.8216774e-05
6.2309231e-05
5.573788e-05
4.864859e-05
4.1176436e-05
3.3418452e-05
2.5451782e-05
1.7333981e-05
9.0849737e-06
7.821878e-07
-7.5154424e-06
-1.5736911e-05
-2.3873832e-05
-3.1885985e-05
-3.9693658e-05
-4.7228664e-05
-5.4368241e-05
-6.0962179e-05
-6.6881487e-05
-7.1934524e-05
-7.5772717e-05
-7.8018052e-05
-7.802689e-05
-7.5136911e-05
-6.8055958e-05
-5.4891386e-05
-3.3346824e-05
9.9036655e-07
-7.7542666e-06
-0.0003113004
0.00029627996
2.2774955e-05
4.07415e-06
-0.00031135491
0.00029952659
1.3168235e-05
-0.00031171931
0.00030262538
1.9907466e-05
-0.00031230906
0.00030556993
2.4611087e-05
-0.00031305706
0.0003083536
2.7550109e-05
-0.00031390884
0.00031096992
2.895836e-05
-0.00031481998
0.00031341189
2.9037859e-05
-0.00031575192
0.00031567253
2.7967166e-05
-0.0003166748
0.00031774566
2.5904953e-05
-0.00031756419
0.00031962652
2.2994143e-05
-0.0003183998
0.00032131077
1.936444e-05
-0.00031916473
0.00032279454
1.5135275e-05
-0.00031984529
0.00032407461
1.0417757e-05
-0.00032042992
0.00032514755
5.3168308e-06
-0.00032090813
0.00032600921
-6.7590118e-08
-0.00032127163
0.00032665616
-5.639171e-06
-0.00032151579
0.00032708752
-1.1303601e-05
-0.00032163857
0.00032730311
-1.6967185e-05
-0.00032163773
0.00032730145
-2.2536621e-05
-0.00032151213
0.00032708167
-2.7917737e-05
-0.00032126352
0.00032664476
-3.3014439e-05
-0.00032089608
0.00032599288
-3.7727184e-05
-0.0003204161
0.00032512896
-4.1951277e-05
-0.00031983158
0.00032405577
-4.5575174e-05
-0.00031915141
0.00032277541
-4.8479125e-05
-0.00031838585
0.00032128989
-5.053325e-05
-0.00031754799
0.0003196022
-5.1594928e-05
-0.00031665479
0.00031771655
-5.1505418e-05
-0.0003157269
0.00031563747
-5.0086263e-05
-0.00031478854
0.00031336946
-4.7136001e-05
-0.00031386895
0.00031091876
-4.2423218e-05
-0.00031300932
0.0003082966
-3.5681936e-05
-0.00031226959
0.00030552836
-2.6604854e-05
-0.00031175804
0.00030268101
-1.483766e-05
-0.0003117161
0.00029994896
-0.00031278243
0.00029794477
-2.7314671e-06
-0.00032742237
1.8853817e-05
9.9297349e-06
-0.00032401597
1.9626636e-05
-0.000321416
2.6771059e-05
-0.00031945335
3.1709016e-05
-0.00031799481
3.4733998e-05
-0.00031693371
3.6099135e-05
-0.00031618492
3.6023169e-05
-0.00031567584
3.4699652e-05
-0.00031535109
3.2300596e-05
-0.00031516501
2.8981e-05
-0.00031508001
2.4881543e-05
-0.00031506513
2.013183e-05
-0.00031509537
1.4852204e-05
-0.00031515013
9.1562326e-06
-0.00031521194
3.1521494e-06
-0.00031526736
-3.0551059e-06
-0.00031530831
-9.3632006e-06
-0.00031533028
-1.5670901e-05
-0.0003153298
-2.1877159e-05
-0.00031530567
-2.7879655e-05
-0.00031526079
-3.3573837e-05
-0.00031520169
-3.885136e-05
-0.00031513834
-4.3598693e-05
-0.00031508404
-4.7695083e-05
-0.00031505478
-5.1010875e-05
-0.00031506985
-5.3405176e-05
-0.00031515348
-5.472335e-05
-0.00031533642
-5.4793329e-05
-0.00031565672
-5.3421597e-05
-0.0003161601
-5.038927e-05
-0.00031690108
-4.5444638e-05
-0.0003179538
-3.8297339e-05
-0.00031941674
-2.8609518e-05
-0.00032144573
-1.5990266e-05
-0.00032433522
-0.0003287727
1.5277093e-06
-0.00034475694
1.5807033e-05
1.5114259e-05
-0.00033760247
2.5490374e-05
-0.00033179201
3.3101938e-05
-0.00032706486
3.8323489e-05
-0.00032321626
4.1472947e-05
-0.0003200831
4.2824328e-05
-0.00031753621
4.2614599e-05
-0.00031546605
4.1053265e-05
-0.00031378967
3.8326727e-05
-0.00031243842
3.4602757e-05
-0.00031135596
3.0033856e-05
-0.00031049618
2.4760389e-05
-0.00030982184
1.8912883e-05
-0.00030930259
1.2614314e-05
-0.00030891332
5.9820171e-06
-0.00030863504
-8.7047765e-07
-0.00030845578
-7.8322939e-06
-0.00030836845
-1.4793827e-05
-0.00030836825
-2.1645509e-05
-0.00030845398
-2.8276602e-05
-0.0003086297
-3.4573858e-05
-0.00030890444
-4.0420023e-05
-0.00030929219
-4.5692025e-05
-0.00030981205
-5.0259032e-05
-0.0003104878
-5.3980444e-05
-0.00031134846
-5.6703675e-05
-0.00031243027
-5.8261187e-05
-0.00031377893
-5.8466649e-05
-0.00031545129
-5.7110379e-05
-0.00031751639
-5.3955296e-05
-0.00032005619
-4.8728651e-05
-0.00032318047
-4.111609e-05
-0.00032702932
-3.0751493e-05
-0.00033181035
-1.7208521e-05
-0.00033787822
-0.00034598122
5.3445596e-06
-0.000363412
1.3310591e-05
1.9943771e-05
-0.00035220165
3.1068729e-05
-0.0003429169
3.9201859e-05
-0.00033519796
4.474839e-05
-0.00032876272
4.8052263e-05
-0.00032338695
4.9409879e-05
-0.00031889375
4.9077561e-05
-0.00031513369
4.7282033e-05
-0.00031199406
4.4225018e-05
-0.00030938136
4.0088119e-05
-0.00030721898
3.5036436e-05
-0.00030544444
2.9222023e-05
-0.00030400733
2.2786185e-05
-0.00030286668
1.5862052e-05
-0.00030198908
8.5766093e-06
-0.00030134951
1.052774e-06
-0.00030093183
-6.5894312e-06
-0.00030072615
-1.4231317e-05
-0.00030072624
-2.1754338e-05
-0.00030093085
-2.9038575e-05
-0.00030134534
-3.5961431e-05
-0.00030198147
-4.2395921e-05
-0.00030285757
-4.8208878e-05
-0.00030399898
-5.325868e-05
-0.00030543787
-5.7393188e-05
-0.00030721384
-6.0447191e-05
-0.00030937615
-6.2239424e-05
-0.00031198659
-6.2568264e-05
-0.00031512233
-6.1206809e-05
-0.00031887775
-5.7898269e-05
-0.00032336462
-5.2347279e-05
-0.00032873138
-4.4213214e-05
-0.00033516331
-3.3098826e-05
-0.00034292467
-1.8539713e-05
-0.00035243726
-0.00036452093
8.8459929e-06
-0.00038350365
1.1245576e-05
2.4550747e-05
-0.00036790644
3.6497525e-05
-0.00035486371
4.5208166e-05
-0.00034390865
5.1120885e-05
-0.00033467547
5.4607663e-05
-0.00032687377
5.5988931e-05
-0.00032027503
5.5541873e-05
-0.00031468668
5.3511736e-05
-0.00030996393
5.0116776e-05
-0.00030598644
4.555342e-05
-0.00030265563
4.0000335e-05
-0.0002998914
3.36221e-05
-0.00029762911
2.6571614e-05
-0.00029581624
1.8992893e-05
-0.00029441039
1.1023333e-05
-0.00029338
2.7959001e-06
-0.00029270443
-5.5595639e-06
-0.00029237074
-1.39147e-05
-0.00029237115
-2.214131e-05
-0.00029270431
-3.010968e-05
-0.00029337702
-3.7687163e-05
-0.00029440405
-4.4736383e-05
-0.00029580841
-5.1113255e-05
-0.00029762218
-5.6664607e-05
-0.00029988658
-6.1225795e-05
-0.00030265272
-6.4618084e-05
-0.00030598392
-6.6645377e-05
-0.00030995936
-6.7089677e-05
-0.00031467809
-6.5705526e-05
-0.00032026196
-6.221503e-05
-0.00032685518
-5.6298372e-05
-0.00033464808
-4.7586928e-05
-0.00034387479
-3.5650276e-05
-0.00035486136
-1.9983743e-05
-0.00036810383
-0.00038450468
1.2125313e-05
-0.00040515416
9.5250632e-06
2.9032757e-05
-0.00038481402
4.1877135e-05
-0.00036770816
5.1222598e-05
-0.00035325421
5.7542885e-05
-0.00034099582
6.1240114e-05
-0.00033057108
6.2660494e-05
-0.00032169549
6.2103699e-05
-0.00031412996
5.9834915e-05
-0.00030769523
5.6090276e-05
-0.00030224188
5.108207e-05
-0.00029764751
4.5003618e-05
-0.00029381303
3.8032866e-05
-0.00029065845
3.0335211e-05
-0.00028811866
2.2066304e-05
-0.00028614156
1.3374812e-05
-0.00028468859
4.4045084e-06
-0.0002837342
-4.704138e-06
-0.00028326217
-1.3812415e-05
-0.00028326294
-2.2781731e-05
-0.00028373506
-3.1471872e-05
-0.00028468693
-3.9739352e-05
-0.00028613663
-4.7435592e-05
-0.00028811222
-5.4404801e-05
-0.00029065301
-6.0481378e-05
-0.00029381004
-6.5487283e-05
-0.00029764685
-6.9229194e-05
-0.00030224204
-7.1495092e-05
-0.0003076935
-7.2049326e-05
-0.00031412388
-7.0626591e-05
-0.00032168472
-6.6926222e-05
-0.00033055557
-6.0602079e-05
-0.00034097225
-5.1255323e-05
-0.00035322157
-3.842003e-05
-0.00036769666
-2.1548413e-05
-0.00038497546
-0.00040605309
1.5264263e-05
-0.00042849459
8.0758585e-06
3.3478013e-05
-0.00040302798
4.7300028e-05
-0.00038153035
5.7340191e-05
-0.00036329453
6.411046e-05
-0.00034776626
6.8045436e-05
-0.00033450621
6.9519031e-05
-0.00032316926
6.8855184e-05
-0.00031346627
6.6340699e-05
-0.00030518094
6.2230948e-05
-0.00029813229
5.6755248e-05
-0.00029217201
5.012265e-05
-0.0002871806
4.2525446e-05
-0.00028306145
3.4142396e-05
-0.00027973581
2.5141717e-05
-0.00027714112
1.5684225e-05
-0.00027523132
5.9253846e-06
-0.00027397561
-3.9828664e-06
-0.00027335416
-1.3890716e-05
-0.00027335535
-2.3648399e-05
-0.00027397761
-3.3104432e-05
-0.00027523115
-4.2103613e-05
-0.00027713768
-5.0485321e-05
-0.00027973076
-5.8081087e-05
-0.00028305747
-6.4711994e-05
-0.00028717937
-7.0185556e-05
-0.00029217351
-7.4292761e-05
-0.00029813504
-7.6804391e-05
-0.00030518208
-7.746581e-05
-0.00031346265
-7.5990388e-05
-0.00032316032
-7.2052992e-05
-0.00033449313
-6.5278984e-05
-0.00034774639
-5.5236902e-05
-0.00036326377
-4.1422797e-05
-0.00038151088
-2.324275e-05
-0.00040315561
-0.00042929584
1.8319843e-05
-0.00045366528
6.8503087e-06
3.7950374e-05
-0.00042265881
5.2834974e-05
-0.00039641522
6.363274e-05
-0.00037409264
7.0897056e-05
-0.00035503081
7.5097207e-05
-0.00033870672
7.6637256e-05
-0.00032470951
7.5867032e-05
-0.00031269639
7.3097228e-05
-0.00030241132
6.8603433e-05
-0.00029363883
6.2633676e-05
-0.00028620242
5.5413463e-05
-0.00027996073
4.7150952e-05
-0.0002747991
3.8038768e-05
-0.00027062397
2.8259164e-05
-0.00026736168
1.7985656e-05
-0.00026495815
7.3867786e-06
-0.00026337692
-3.3735242e-06
-0.00026259418
-1.4133225e-05
-0.00026259584
-2.4730896e-05
-0.00026338023
-3.5002589e-05
-0.00026495964
-4.4780802e-05
-0.00026735975
-5.3891553e-05
-0.00027062018
-6.2153025e-05
-0.00027479628
-6.9371666e-05
-0.00027996087
-7.5339757e-05
-0.00028620569
-7.9831078e-05
-0.00029364384
-8.2598115e-05
-0.00030241527
-8.3365523e-05
-0.00031269533
-8.1823971e-05
-0.00032470205
-7.762192e-05
-0.00033869528
-7.0353917e-05
-0.0003550145
-5.9553136e-05
-0.00037406462
-4.4674916e-05
-0.00039638915
-2.5075929e-05
-0.00042275466
-0.00045437177
2.1369202e-05
5.7806715e-06
4.2534108e-05
5.8570963e-05
7.0192641e-05
7.7996365e-05
8.2489572e-05
8.4107914e-05
8.323017e-05
8.0192163e-05
7.5291787e-05
6.8796507e-05
6.0950187e-05
5.1977418e-05
4.2086343e-05
3.1473918e-05
2.0327713e-05
8.8301283e-06
-2.8417377e-06
-1.4512697e-05
-2.6009166e-05
-3.7152989e-05
-4.7764443e-05
-5.7653781e-05
-6.6626367e-05
-7.4470973e-05
-8.0965638e-05
-8.58634e-05
-8.8899077e-05
-8.9773001e-05
-8.8153124e-05
-8.3658331e-05
-7.5850797e-05
-6.4224674e-05
-4.8191945e-05
-2.7056843e-05
0.00027628257
2.1662188e-05
0.00025632862
1.9953934e-05
0.00023793819
1.8390379e-05
0.0002209886
1.6949585e-05
0.00020536735
1.5621231e-05
0.00019097029
1.4397062e-05
0.00017770186
1.3268414e-05
0.00016547393
1.2227929e-05
0.0001542056
1.1268342e-05
0.00014382005
1.0385657e-05
0.0001342467
9.5732518e-06
0.00012542305
8.8237437e-06
0.00011729153
8.1314138e-06
0.00010979926
7.4923337e-06
0.00010289763
6.901553e-06
9.6542125e-05
6.3555401e-06
9.0692022e-05
5.8500578e-06
8.531016e-05
5.3818902e-06
8.0362681e-05
4.947456e-06
7.581882e-05
4.5438826e-06
7.1650628e-05
4.1681757e-06
6.7832581e-05
3.8180489e-06
6.4340953e-05
3.4916429e-06
6.1155375e-05
3.1855672e-06
5.8255145e-05
2.9002345e-06
5.5621497e-05
2.6336445e-06
5.3236311e-05
2.3851939e-06
5.1081046e-05
2.1552602e-06
4.9139019e-05
1.9420291e-06
4.7390113e-05
1.7489087e-06
4.5833215e-05
1.5569089e-06
4.4420434e-05
1.4127678e-06
4.3131238e-05
1.2892011e-06
4.1980222e-05
1.1510058e-06
4.0939146e-05
1.0410907e-06
4.0012337e-05
9.2680677e-07
3.9183487e-05
8.2885251e-07
3.8411214e-05
7.7228328e-07
3.7679936e-05
7.3126534e-07
3.6986621e-05
6.9332591e-07
3.6339427e-05
6.4718244e-07
3.5741523e-05
5.9791473e-07
3.5187868e-05
5.5364618e-07
3.4674436e-05
5.1343741e-07
3.4190691e-05
4.83742e-07
4.5003005e-07
3.3740665e-05
0.0002786055
4.3005637e-05
0.00025893274
3.9626686e-05
0.00024080168
3.6521382e-05
0.00022408688
3.3664382e-05
0.00020867531
3.1032783e-05
0.00019446495
2.8607415e-05
0.0001813595
2.6373857e-05
0.0001692703
2.4317128e-05
0.00015811876
2.2419892e-05
0.00014783367
2.0670846e-05
0.00013834904
1.9057798e-05
0.00012960282
1.7570057e-05
0.00012153765
1.6196477e-05
0.00011410125
1.4928796e-05
0.00010724586
1.3756857e-05
0.00010092828
1.2673166e-05
9.5109348e-05
1.166894e-05
8.9753992e-05
1.0737274e-05
8.4830778e-05
9.8706464e-06
8.0311797e-05
9.0628834e-06
7.6172512e-05
8.3074454e-06
7.2391201e-05
7.5993617e-06
6.8948135e-05
6.9347189e-06
6.5827633e-05
6.3060586e-06
6.3013467e-05
5.7144052e-06
6.049121e-05
5.1559037e-06
5.8246768e-05
4.629644e-06
5.6264531e-05
4.1374958e-06
5.4529826e-05
3.6767341e-06
5.3024508e-05
3.2542307e-06
5.1732075e-05
2.8493425e-06
5.0632137e-05
2.5127003e-06
4.9697708e-05
2.2236339e-06
4.8907905e-05
1.9408014e-06
4.8243662e-05
1.7053414e-06
4.7683156e-05
1.4873079e-06
4.7208685e-05
1.3033225e-06
4.680443e-05
1.1765435e-06
4.6455526e-05
1.0801594e-06
4.6150878e-05
9.9797995e-07
4.5881523e-05
9.165277e-07
4.5639123e-05
8.4031875e-07
4.5422838e-05
7.6992389e-07
4.5213193e-05
7.2308375e-07
4.5070362e-05
6.2656854e-07
5.9267926e-07
4.4927712e-05
0.00028187485
6.381178e-05
0.00026268939
5.8812134e-05
0.0002449919
5.4218827e-05
0.00022866577
4.9990511e-05
0.00021360326
4.6095284e-05
0.00019970469
4.2505978e-05
0.00018687898
3.9199558e-05
0.0001750422
3.6153912e-05
0.00016411634
3.3345751e-05
0.00015402978
3.0757483e-05
0.000144717
2.837051e-05
0.00013611795
2.6169177e-05
0.00012817742
2.413693e-05
0.00012084501
2.2261246e-05
0.00011407469
2.052712e-05
0.00010782481
1.8923074e-05
0.00010205792
1.7435797e-05
9.6740678e-05
1.6054537e-05
9.1843687e-05
1.4767622e-05
8.7341405e-05
1.3565183e-05
8.3212053e-05
1.2436785e-05
7.9437078e-05
1.1374338e-05
7.6000367e-05
1.0371443e-05
7.2890579e-05
9.4158385e-06
7.00957e-05
8.5092884e-06
6.7605936e-05
7.6456616e-06
6.5411652e-05
6.8239324e-06
6.3501328e-05
6.0478162e-06
6.1863543e-05
5.3145208e-06
6.0483588e-05
4.634193e-06
5.9341268e-05
3.991672e-06
5.8419592e-05
3.4343708e-06
5.7695682e-05
2.9475485e-06
5.7142372e-05
2.494105e-06
5.6736159e-05
2.1115667e-06
5.645028e-05
1.7731869e-06
5.626232e-05
1.4912853e-06
5.615451e-05
1.2843635e-06
5.6109219e-05
1.1254414e-06
5.6110841e-05
9.9636662e-07
5.6145462e-05
8.8189854e-07
5.6202105e-05
7.8368238e-07
5.6273825e-05
6.9819979e-07
5.6355666e-05
6.4124693e-07
5.643348e-05
5.4875338e-07
5.0996344e-07
5.6516197e-05
0.00028546667
8.3873464e-05
0.00026696073
7.7318063e-05
0.00024988519
7.1294316e-05
0.000234127
6.5748706e-05
0.00021958176
6.0640502e-05
0.00020615304
5.5934698e-05
0.00019375241
5.1600176e-05
0.0001822986
4.7607718e-05
0.00017171662
4.392774e-05
0.00016193736
4.0536818e-05
0.00015289719
3.7410618e-05
0.00014453787
3.4528564e-05
0.00013680607
3.1868657e-05
0.00012965331
2.9414051e-05
0.00012303547
2.7144889e-05
0.00011691292
2.504566e-05
0.00011125013
2.3098546e-05
0.0001060159
2.1288787e-05
0.00010118311
1.9600405e-05
9.6728742e-05
1.8019559e-05
9.2633947e-05
1.6531572e-05
8.8883484e-05
1.5124801e-05
8.5465073e-05
1.3789862e-05
8.2371778e-05
1.2509126e-05
7.9596159e-05
1.1284911e-05
7.7133441e-05
1.0108381e-05
7.4978996e-05
8.9783856e-06
7.3125816e-05
7.9009932e-06
7.1566732e-05
6.873607e-06
7.0290462e-05
5.9104666e-06
6.9278076e-05
5.0040576e-06
6.8512841e-05
4.1996036e-06
6.7971539e-05
3.4888535e-06
6.7625111e-05
2.8405266e-06
6.7447148e-05
2.2895351e-06
6.7407071e-05
1.8132582e-06
6.7478241e-05
1.4201149e-06
6.7638824e-05
1.1237816e-06
6.786721e-05
8.9704979e-07
6.814419e-05
7.1938789e-07
6.8452707e-05
5.7337615e-07
6.8779455e-05
4.5693454e-07
6.9114555e-05
3.6309515e-07
6.9453223e-05
3.0257785e-07
6.9778291e-05
2.2368248e-07
1.8973952e-07
7.0098512e-05
0.0002892364
0.00010293365
0.00027164648
9.4907971e-05
0.0002554096
8.7531154e-05
0.00024041867
8.0739632e-05
0.00022657447
7.4484696e-05
0.00021378518
6.8723978e-05
0.00020196637
6.3418991e-05
0.00019104017
5.8533907e-05
0.0001809349
5.4033013e-05
0.00017158463
4.9887145e-05
0.0001629287
4.6066497e-05
0.00015491155
4.2545758e-05
0.00014748226
3.9297899e-05
0.00014059466
3.6301678e-05
0.00013420691
3.3532606e-05
0.00012828164
3.0970945e-05
0.00012278571
2.859446e-05
0.0001176904
2.6384105e-05
0.00011297131
2.431949e-05
0.00010860849
2.2382387e-05
0.00010458652
2.0553537e-05
0.00010089409
1.8817227e-05
9.7523204e-05
1.7160761e-05
9.4472226e-05
1.5560101e-05
9.1738973e-05
1.4018166e-05
8.9324498e-05
1.2522851e-05
8.7230081e-05
1.1072805e-05
8.5454123e-05
9.6769477e-06
8.3994554e-05
8.3331811e-06
8.2844183e-05
7.0608476e-06
8.1986199e-05
5.8620491e-06
8.1404929e-05
4.7808735e-06
8.1076461e-05
3.8173276e-06
8.0969323e-05
2.9476613e-06
8.1053801e-05
2.2050668e-06
8.1295045e-05
1.5720155e-06
8.1661675e-05
1.0534883e-06
8.212712e-05
6.5834355e-07
8.266529e-05
3.5887477e-07
8.3252947e-05
1.3173513e-07
8.3869508e-05
-4.3188827e-08
8.4498853e-05
-1.7240795e-07
8.5128484e-05
-2.6653745e-07
8.575192e-05
-3.2085671e-07
8.6351022e-05
-3.7542135e-07
-3.9300715e-07
8.6933769e-05
0.00029315965
0.00012069276
0.00027676227
0.00011130534
0.00026161789
0.00010267549
0.0002476267
9.4730825e-05
0.00023469637
8.7415004e-05
0.00022274136
8.0678982e-05
0.0002116828
7.447754e-05
0.00020144789
6.8768824e-05
0.00019196934
6.3511573e-05
0.00018318532
5.8671216e-05
0.00017503892
5.4212851e-05
0.00016747811
5.0106618e-05
0.00016045518
4.6320773e-05
0.00015392703
4.2829851e-05
0.00014785471
3.9604889e-05
0.00014220368
3.6621991e-05
0.00013694373
3.3854388e-05
0.00013204919
3.1278664e-05
0.00012749896
2.8869707e-05
0.00012327678
2.660458e-05
0.00011937141
2.4458897e-05
0.0001157762
2.2412443e-05
0.00011248834
2.0448621e-05
0.00010951256
1.8535881e-05
0.00010685294
1.6677786e-05
0.00010451753
1.485826e-05
0.00010251468
1.3075664e-05
0.00010084923
1.1342388e-05
9.9525477e-05
9.6569408e-06
9.8541134e-05
8.0451939e-06
9.7882052e-05
6.5211293e-06
9.7534034e-05
5.1288907e-06
9.7472702e-05
3.8786616e-06
9.7663797e-05
2.7565614e-06
9.8073663e-05
1.7952021e-06
9.8662436e-05
9.8323849e-07
9.9393087e-05
3.2283697e-07
0.00010023358
-1.8215518e-07
0.00010115248
-5.6002409e-07
0.00010212159
-8.373722e-07
0.00010311586
-1.0374657e-06
0.00010411563
-1.1721759e-06
0.00010510526
-1.2561761e-06
0.00010607604
-1.2916355e-06
0.00010701012
-1.3095018e-06
-1.2953586e-06
0.00010791246
0.00029725547
0.00013680673
0.00028236746
0.00012619335
0.00026860686
0.00011643606
0.0002558828
0.00010745488
0.00024411135
9.9186453e-05
0.00023321472
9.1575601e-05
0.0002231212
8.4571066e-05
0.00021376445
7.8125564e-05
0.0002050831
7.2192924e-05
0.00019702067
6.6733675e-05
0.00018952509
6.17084e-05
0.00018254881
5.7082927e-05
0.00017604827
5.2821289e-05
0.00016998426
4.8893875e-05
0.00016432152
4.5267611e-05
0.0001590292
4.1914315e-05
0.00015408068
3.88029e-05
0.00014945412
3.590523e-05
0.00014513247
3.3191347e-05
0.00014110394
3.0633121e-05
0.00013736233
2.8200508e-05
0.00013390664
2.586813e-05
0.0001307403
2.3614972e-05
0.00012787562
2.1400555e-05
0.00012532416
1.9229255e-05
0.00012310235
1.7080055e-05
0.00012122703
1.4950992e-05
0.00011971075
1.2858669e-05
0.0001185654
1.0802299e-05
0.00011779473
8.8158717e-06
0.00011738781
6.9280508e-06
0.00011733237
5.1843323e-06
0.00011760347
3.6075727e-06
0.00011816383
2.1961965e-06
0.00011897498
9.8406306e-07
0.00011999146
-3.3240465e-08
0.00012116926
-8.5496207e-07
0.00012246951
-1.482399e-06
0.00012385424
-1.9447566e-06
0.0001252893
-2.2724297e-06
0.00012674466
-2.4928254e-06
0.0001281965
-2.6240192e-06
0.00012962564
-2.6853176e-06
0.00013102053
-2.6865308e-06
0.00013236295
-2.6519207e-06
-2.5871398e-06
0.00013365473
0.00030155489
0.0001508893
0.00028853153
0.0001392167
0.00027648121
0.00012848634
0.0002653241
0.00011861199
0.00025498647
0.00010952407
0.00024539999
0.00010116208
0.00023650162
9.3469427e-05
0.00022823297
8.6394211e-05
0.00022054002
7.9885884e-05
0.00021337293
7.3900808e-05
0.00020668578
6.8395518e-05
0.0002004366
6.3332138e-05
0.00019458705
5.8670797e-05
0.0001891028
5.4378145e-05
0.00018395323
5.0417155e-05
0.00017911196
4.675559e-05
0.00017455695
4.3357898e-05
0.00017027098
4.0191204e-05
0.00016624201
3.7220312e-05
0.00016246364
3.44115e-05
0.00015893573
3.1728412e-05
0.00015566404
2.9139823e-05
0.00015265948
2.6619533e-05
0.00014994322
2.4116821e-05
0.00014753576
2.1636715e-05
0.00014546355
1.9152264e-05
0.00014375299
1.6661551e-05
0.00014242767
1.4183988e-05
0.00014150615
1.1723825e-05
0.00014099866
9.323365e-06
0.00014090091
7.0257967e-06
0.00014120221
4.8830308e-06
0.00014187688
2.932899e-06
0.00014288437
1.1887064e-06
0.00014418069
-3.122563e-07
0.00014571315
-1.5657065e-06
0.00014742984
-2.5716482e-06
0.00014928384
-3.3363997e-06
0.00015122966
-3.8905884e-06
0.00015322606
-4.2688231e-06
0.00015523692
-4.5036948e-06
0.00015723334
-4.6204388e-06
0.00015919196
-4.6439351e-06
0.00016109755
-4.5921246e-06