/*--------------------------------*- C++ -*----------------------------------*\
| =========                 |                                                 |
| \\      /  F ield         | OpenFOAM: The Open Source CFD Toolbox           |
|  \\    /   O peration     | Version:  v2006                                 |
|   \\  /    A nd           | Website:  www.openfoam.com                      |
|    \\/     M anipulation  |                                                 |
\*---------------------------------------------------------------------------*/
FoamFile
{
    version     2.0;
    format      ascii;
    class       volScalarField;
    location    "6000";
    object      pMean;
}
// * * * * * * * * * * * * * * * * * * * * * * * * * * * * * * * * * * * * * //

dimensions      [1 -1 -2 0 0 0 0];


internalField   nonuniform List<scalar> 
21256
(
1.0000388
1.0000388
1.0000388
1.0000388
1.0000388
1.0000388
1.0000388
1.0000388
1.0000388
1.0000388
1.0000388
1.0000388
1.0000388
1.0000388
1.0000388
1.0000388
1.0000388
1.0000388
1.0000388
1.0000388
1.0000388
1.0000388
1.0000388
1.0000388
1.0000388
1.0000388
1.0000388
1.0000388
1.0000388
1.0000388
1.0000388
1.0000388
1.0000388
1.0000388
1.0000388
1.0000388
1.0000358
1.0000358
1.0000358
1.0000358
1.0000358
1.0000358
1.0000358
1.0000358
1.0000358
1.0000358
1.0000358
1.0000358
1.0000358
1.0000358
1.0000358
1.0000358
1.0000358
1.0000358
1.0000358
1.0000358
1.0000358
1.0000358
1.0000358
1.0000358
1.0000358
1.0000358
1.0000358
1.0000358
1.0000358
1.0000359
1.0000359
1.0000359
1.0000359
1.0000359
1.0000359
1.0000359
1.0000333
1.0000333
1.0000333
1.0000333
1.0000333
1.0000333
1.0000333
1.0000333
1.0000333
1.0000333
1.0000333
1.0000333
1.0000333
1.0000333
1.0000333
1.0000333
1.0000333
1.0000333
1.0000333
1.0000333
1.0000333
1.0000333
1.0000333
1.0000333
1.0000333
1.0000333
1.0000333
1.0000333
1.0000333
1.0000333
1.0000333
1.0000333
1.0000333
1.0000333
1.0000333
1.0000333
1.0000318
1.0000318
1.0000318
1.0000318
1.0000318
1.0000318
1.0000318
1.0000318
1.0000318
1.0000318
1.0000318
1.0000318
1.0000318
1.0000318
1.0000318
1.0000318
1.0000318
1.0000318
1.0000318
1.0000318
1.0000318
1.0000318
1.0000318
1.0000318
1.0000318
1.0000318
1.0000318
1.0000318
1.0000318
1.0000318
1.0000318
1.0000318
1.0000318
1.0000318
1.0000318
1.0000318
1.0000306
1.0000306
1.0000306
1.0000306
1.0000306
1.0000306
1.0000306
1.0000306
1.0000306
1.0000306
1.0000306
1.0000306
1.0000306
1.0000306
1.0000306
1.0000306
1.0000307
1.0000307
1.0000307
1.0000307
1.0000307
1.0000307
1.0000307
1.0000307
1.0000307
1.0000307
1.0000307
1.0000307
1.0000307
1.0000307
1.0000307
1.0000307
1.0000307
1.0000307
1.0000307
1.0000307
1.0000271
1.0000271
1.0000271
1.0000271
1.0000271
1.0000271
1.0000271
1.0000271
1.0000271
1.0000271
1.0000271
1.0000271
1.0000271
1.0000271
1.0000271
1.0000271
1.0000271
1.0000271
1.0000271
1.0000271
1.0000271
1.0000271
1.0000271
1.0000271
1.0000271
1.0000271
1.0000271
1.0000271
1.0000271
1.0000271
1.0000271
1.0000271
1.0000271
1.0000271
1.0000271
1.0000271
1.0000266
1.0000266
1.0000266
1.0000266
1.0000266
1.0000266
1.0000266
1.0000266
1.0000265
1.0000265
1.0000265
1.0000265
1.0000265
1.0000265
1.0000265
1.0000265
1.0000265
1.0000265
1.0000265
1.0000265
1.0000265
1.0000265
1.0000265
1.0000265
1.0000265
1.0000265
1.0000265
1.0000264
1.0000264
1.0000264
1.0000264
1.0000264
1.0000264
1.0000264
1.0000264
1.0000264
1.0000404
1.0000404
1.0000404
1.0000404
1.0000404
1.0000404
1.0000404
1.0000404
1.0000404
1.0000404
1.0000404
1.0000404
1.0000404
1.0000404
1.0000404
1.0000404
1.0000404
1.0000404
1.0000404
1.0000404
1.0000404
1.0000404
1.0000404
1.0000404
1.0000404
1.0000404
1.0000404
1.0000404
1.0000404
1.0000404
1.0000404
1.0000404
1.0000404
1.0000404
1.0000404
1.0000404
1.0000253
1.0000254
1.0000254
1.0000254
1.0000254
1.0000254
1.0000254
1.0000254
1.0000254
1.0000254
1.0000254
1.0000254
1.0000254
1.0000254
1.0000254
1.0000254
1.0000254
1.0000254
1.0000254
1.0000254
1.0000254
1.0000254
1.0000254
1.0000254
1.0000254
1.0000254
1.0000254
1.0000254
1.0000254
1.0000254
1.0000254
1.0000254
1.0000254
1.0000254
1.0000254
1.0000254
1.00012
1.00012
1.0001201
1.0001201
1.0001202
1.0001202
1.0001203
1.0001203
1.0001203
1.0001204
1.0001204
1.0001204
1.0001205
1.0001205
1.0001205
1.0001206
1.0001206
1.0001206
1.0001207
1.0001207
1.0001207
1.0001207
1.0001207
1.0001208
1.0001208
1.0001208
1.0001208
1.0001208
1.0001208
1.0001208
1.0001208
1.0001208
1.0001208
1.0001208
1.0001208
1.0001208
1.0001039
1.0001039
1.0001039
1.000104
1.000104
1.000104
1.0001041
1.0001041
1.0001041
1.0001042
1.0001042
1.0001042
1.0001042
1.0001042
1.0001043
1.0001043
1.0001043
1.0001043
1.0001043
1.0001044
1.0001044
1.0001044
1.0001044
1.0001044
1.0001044
1.0001044
1.0001044
1.0001045
1.0001045
1.0001045
1.0001045
1.0001045
1.0001045
1.0001045
1.0001045
1.0001045
1.0000902
1.0000902
1.0000902
1.0000902
1.0000903
1.0000903
1.0000903
1.0000903
1.0000903
1.0000904
1.0000904
1.0000904
1.0000904
1.0000904
1.0000904
1.0000904
1.0000905
1.0000905
1.0000905
1.0000905
1.0000905
1.0000905
1.0000905
1.0000905
1.0000905
1.0000906
1.0000906
1.0000906
1.0000906
1.0000906
1.0000906
1.0000906
1.0000906
1.0000906
1.0000906
1.0000906
1.0000787
1.0000787
1.0000787
1.0000787
1.0000787
1.0000788
1.0000788
1.0000788
1.0000788
1.0000788
1.0000788
1.0000788
1.0000789
1.0000789
1.0000789
1.0000789
1.0000789
1.0000789
1.0000789
1.0000789
1.0000789
1.0000789
1.0000789
1.0000789
1.0000789
1.000079
1.000079
1.000079
1.000079
1.000079
1.000079
1.000079
1.000079
1.000079
1.000079
1.000079
1.0000689
1.0000689
1.0000689
1.000069
1.000069
1.000069
1.000069
1.000069
1.000069
1.000069
1.000069
1.000069
1.000069
1.000069
1.0000691
1.0000691
1.0000691
1.0000691
1.0000691
1.0000691
1.0000691
1.0000691
1.0000691
1.0000691
1.0000691
1.0000691
1.0000691
1.0000691
1.0000691
1.0000691
1.0000691
1.0000691
1.0000691
1.0000691
1.0000691
1.0000691
1.0000607
1.0000607
1.0000607
1.0000607
1.0000607
1.0000607
1.0000607
1.0000607
1.0000607
1.0000607
1.0000607
1.0000607
1.0000607
1.0000607
1.0000608
1.0000608
1.0000608
1.0000608
1.0000608
1.0000608
1.0000608
1.0000608
1.0000608
1.0000608
1.0000608
1.0000608
1.0000608
1.0000608
1.0000608
1.0000608
1.0000608
1.0000608
1.0000608
1.0000608
1.0000608
1.0000608
1.0000536
1.0000536
1.0000536
1.0000536
1.0000536
1.0000536
1.0000536
1.0000537
1.0000537
1.0000537
1.0000537
1.0000537
1.0000537
1.0000537
1.0000537
1.0000537
1.0000537
1.0000537
1.0000537
1.0000537
1.0000537
1.0000537
1.0000537
1.0000537
1.0000537
1.0000537
1.0000537
1.0000537
1.0000537
1.0000537
1.0000537
1.0000537
1.0000537
1.0000537
1.0000537
1.0000537
1.0000476
1.0000476
1.0000476
1.0000476
1.0000476
1.0000476
1.0000476
1.0000476
1.0000476
1.0000476
1.0000477
1.0000477
1.0000477
1.0000477
1.0000477
1.0000477
1.0000477
1.0000477
1.0000477
1.0000477
1.0000477
1.0000477
1.0000477
1.0000477
1.0000477
1.0000477
1.0000477
1.0000477
1.0000477
1.0000477
1.0000477
1.0000477
1.0000477
1.0000477
1.0000477
1.0000477
1.0000426
1.0000426
1.0000426
1.0000426
1.0000426
1.0000426
1.0000426
1.0000426
1.0000426
1.0000426
1.0000426
1.0000426
1.0000426
1.0000427
1.0000427
1.0000427
1.0000427
1.0000427
1.0000427
1.0000427
1.0000427
1.0000427
1.0000427
1.0000427
1.0000427
1.0000427
1.0000427
1.0000427
1.0000427
1.0000427
1.0000427
1.0000427
1.0000427
1.0000427
1.0000427
1.0000427
1.0001378
1.000153
1.000169
1.0001867
1.0002061
1.0002274
1.0002508
1.0002762
1.000304
1.0003343
1.0003671
1.0004026
1.0004409
1.000482
1.000526
1.0005728
1.0006222
1.0006739
1.0007276
1.0007825
1.0008378
1.0008926
1.0009453
1.0009946
1.0010385
1.0010751
1.0011023
1.0011179
1.0011202
1.0011075
1.0010784
1.0010325
1.0009698
1.0008904
1.0007959
1.0006877
1.000568
1.0004392
1.000303
1.0001614
1.0000165
0.99987035
0.99972452
0.99958054
0.99943846
0.99930216
1.0001378
1.000153
1.000169
1.0001867
1.0002061
1.0002274
1.0002508
1.0002762
1.000304
1.0003343
1.0003671
1.0004026
1.0004409
1.000482
1.000526
1.0005728
1.0006222
1.0006739
1.0007276
1.0007825
1.0008378
1.0008926
1.0009453
1.0009946
1.0010385
1.0010751
1.0011023
1.0011179
1.0011202
1.0011075
1.0010784
1.0010325
1.0009698
1.0008904
1.0007959
1.0006877
1.000568
1.0004391
1.0003029
1.0001613
1.0000165
0.99987032
0.99972448
0.99958053
0.99943838
0.99930206
1.0001378
1.000153
1.000169
1.0001866
1.0002061
1.0002274
1.0002508
1.0002762
1.000304
1.0003343
1.0003671
1.0004026
1.0004409
1.000482
1.000526
1.0005728
1.0006222
1.0006739
1.0007276
1.0007825
1.0008378
1.0008926
1.0009453
1.0009946
1.0010385
1.0010751
1.0011023
1.0011179
1.0011203
1.0011076
1.0010785
1.0010326
1.0009699
1.0008906
1.000796
1.0006879
1.0005682
1.0004393
1.000303
1.0001615
1.0000166
0.99987043
0.99972458
0.9995806
0.99943861
0.99930209
1.0001378
1.000153
1.000169
1.0001866
1.0002061
1.0002274
1.0002507
1.0002762
1.000304
1.0003342
1.000367
1.0004025
1.0004408
1.000482
1.000526
1.0005728
1.0006222
1.0006739
1.0007276
1.0007825
1.0008378
1.0008926
1.0009453
1.0009947
1.0010386
1.0010752
1.0011024
1.001118
1.0011204
1.0011077
1.0010787
1.0010328
1.0009701
1.0008908
1.0007963
1.0006882
1.0005685
1.0004395
1.0003033
1.0001617
1.0000168
0.99987065
0.99972479
0.99958081
0.99943892
0.99930215
1.0001378
1.000153
1.000169
1.0001866
1.0002061
1.0002274
1.0002507
1.0002762
1.000304
1.0003342
1.000367
1.0004025
1.0004408
1.000482
1.000526
1.0005727
1.0006221
1.0006739
1.0007275
1.0007824
1.0008378
1.0008926
1.0009453
1.0009947
1.0010386
1.0010752
1.0011025
1.0011182
1.0011206
1.001108
1.001079
1.0010332
1.0009706
1.0008913
1.0007968
1.0006887
1.000569
1.0004401
1.0003038
1.0001622
1.0000173
0.99987116
0.99972529
0.99958127
0.99943947
0.99930255
1.0001378
1.000153
1.000169
1.0001866
1.0002061
1.0002274
1.0002507
1.0002762
1.000304
1.0003342
1.000367
1.0004025
1.0004408
1.0004819
1.0005259
1.0005727
1.0006221
1.0006738
1.0007275
1.0007824
1.0008378
1.0008925
1.0009453
1.0009947
1.0010387
1.0010754
1.0011027
1.0011185
1.001121
1.0011085
1.0010796
1.0010339
1.0009713
1.0008922
1.0007977
1.0006897
1.00057
1.000441
1.0003047
1.0001631
1.0000182
0.99987203
0.99972613
0.99958207
0.99944033
0.99930325
1.0001377
1.000153
1.000169
1.0001866
1.0002061
1.0002274
1.0002507
1.0002762
1.000304
1.0003342
1.000367
1.0004025
1.0004407
1.0004819
1.0005259
1.0005726
1.000622
1.0006738
1.0007274
1.0007823
1.0008377
1.0008925
1.0009453
1.0009947
1.0010388
1.0010756
1.001103
1.0011189
1.0011216
1.0011092
1.0010805
1.001035
1.0009726
1.0008936
1.0007993
1.0006913
1.0005717
1.0004427
1.0003063
1.0001647
1.0000198
0.99987359
0.99972765
0.99958353
0.9994418
0.99930457
1.0001377
1.000153
1.000169
1.0001866
1.000206
1.0002274
1.0002507
1.0002761
1.0003039
1.0003341
1.0003669
1.0004024
1.0004407
1.0004818
1.0005258
1.0005725
1.0006219
1.0006736
1.0007273
1.0007822
1.0008376
1.0008924
1.0009453
1.0009948
1.0010389
1.0010758
1.0011035
1.0011196
1.0011225
1.0011104
1.001082
1.0010368
1.0009746
1.0008959
1.0008018
1.000694
1.0005745
1.0004455
1.0003091
1.0001674
1.0000224
0.99987617
0.99973014
0.99958591
0.99944414
0.99930674
1.0001377
1.000153
1.000169
1.0001866
1.000206
1.0002273
1.0002506
1.0002761
1.0003039
1.0003341
1.0003668
1.0004023
1.0004406
1.0004817
1.0005257
1.0005724
1.0006218
1.0006735
1.0007271
1.0007821
1.0008375
1.0008923
1.0009453
1.0009948
1.0010391
1.0010763
1.0011041
1.0011206
1.0011239
1.0011123
1.0010843
1.0010396
1.0009779
1.0008995
1.0008058
1.0006982
1.0005789
1.0004499
1.0003135
1.0001718
1.0000268
0.99988038
0.99973422
0.99958983
0.99944793
0.99931032
1.0001377
1.000153
1.0001689
1.0001865
1.000206
1.0002273
1.0002506
1.000276
1.0003038
1.000334
1.0003668
1.0004022
1.0004405
1.0004816
1.0005255
1.0005722
1.0006216
1.0006733
1.0007269
1.0007818
1.0008373
1.0008922
1.0009452
1.0009949
1.0010395
1.0010769
1.0011052
1.0011221
1.001126
1.0011151
1.0010878
1.0010438
1.0009828
1.0009052
1.000812
1.0007048
1.0005858
1.0004569
1.0003205
1.0001787
1.0000336
0.99988701
0.99974064
0.99959599
0.99945384
0.99931595
1.0001377
1.0001529
1.0001689
1.0001865
1.000206
1.0002272
1.0002505
1.000276
1.0003037
1.0003339
1.0003667
1.0004021
1.0004403
1.0004814
1.0005253
1.000572
1.0006213
1.000673
1.0007266
1.0007815
1.000837
1.0008919
1.0009451
1.000995
1.0010399
1.0010777
1.0011066
1.0011243
1.0011291
1.0011192
1.0010931
1.0010502
1.0009903
1.0009136
1.0008213
1.0007149
1.0005962
1.0004676
1.0003313
1.0001894
1.0000441
0.99989722
0.99975052
0.99960548
0.99946294
0.99932458
1.0001377
1.0001529
1.0001689
1.0001865
1.0002059
1.0002272
1.0002505
1.0002759
1.0003036
1.0003338
1.0003665
1.0004019
1.0004401
1.0004811
1.000525
1.0005717
1.0006209
1.0006726
1.0007261
1.0007811
1.0008366
1.0008916
1.000945
1.0009952
1.0010405
1.001079
1.0011087
1.0011275
1.0011335
1.0011251
1.0011007
1.0010595
1.0010012
1.0009261
1.0008351
1.0007297
1.0006118
1.0004836
1.0003474
1.0002054
1.0000598
0.99991254
0.99976534
0.99961974
0.99947665
0.9993377
1.0001376
1.0001529
1.0001689
1.0001864
1.0002059
1.0002271
1.0002504
1.0002758
1.0003035
1.0003336
1.0003663
1.0004017
1.0004398
1.0004808
1.0005246
1.0005712
1.0006204
1.000672
1.0007255
1.0007805
1.000836
1.0008912
1.0009448
1.0009953
1.0010413
1.0010806
1.0011115
1.0011318
1.0011397
1.0011334
1.0011114
1.0010727
1.0010169
1.000944
1.000855
1.0007512
1.0006344
1.0005068
1.0003708
1.0002287
1.0000827
0.99993489
0.99978695
0.9996405
0.99949652
0.99935651
1.0001376
1.0001529
1.0001688
1.0001864
1.0002058
1.0002271
1.0002503
1.0002757
1.0003034
1.0003335
1.0003661
1.0004014
1.0004395
1.0004804
1.0005242
1.0005707
1.0006198
1.0006713
1.0007248
1.0007797
1.0008352
1.0008906
1.0009445
1.0009956
1.0010423
1.0010828
1.0011153
1.0011377
1.0011482
1.0011448
1.0011261
1.0010909
1.0010385
1.000969
1.0008828
1.0007813
1.0006662
1.0005396
1.000404
1.0002618
1.0001152
0.99996653
0.99981757
0.99966995
0.99952487
0.99938366
1.0001376
1.0001528
1.0001688
1.0001863
1.0002057
1.000227
1.0002502
1.0002756
1.0003032
1.0003332
1.0003658
1.0004011
1.0004391
1.0004799
1.0005236
1.00057
1.000619
1.0006704
1.0007237
1.0007786
1.0008342
1.0008897
1.000944
1.0009958
1.0010436
1.0010857
1.0011202
1.0011454
1.0011592
1.0011599
1.0011456
1.0011152
1.0010677
1.0010027
1.0009205
1.0008223
1.0007096
1.0005845
1.0004494
1.000307
1.0001597
1.0000098
0.99985937
0.99970998
0.99956308
0.9994197
1.0001376
1.0001528
1.0001687
1.0001863
1.0002056
1.0002269
1.0002501
1.0002754
1.000303
1.000333
1.0003655
1.0004007
1.0004386
1.0004793
1.0005228
1.0005691
1.000618
1.0006692
1.0007225
1.0007772
1.0008329
1.0008886
1.0009434
1.000996
1.0010451
1.0010891
1.0011263
1.0011549
1.0011731
1.001179
1.0011706
1.0011465
1.0011054
1.0010465
1.0009699
1.0008762
1.0007668
1.0006438
1.0005097
1.0003671
1.0002187
1.0000672
0.99991468
0.99976302
0.99961398
0.99946825
1.0001375
1.0001527
1.0001687
1.0001862
1.0002056
1.0002267
1.0002499
1.0002752
1.0003027
1.0003327
1.0003651
1.0004002
1.000438
1.0004786
1.0005219
1.000568
1.0006167
1.0006678
1.0007209
1.0007756
1.0008313
1.0008872
1.0009425
1.0009961
1.0010467
1.001093
1.0011335
1.0011663
1.0011899
1.0012021
1.0012011
1.001185
1.0011522
1.0011014
1.0010321
1.0009445
1.0008398
1.0007196
1.0005867
1.0004438
1.000294
1.0001401
0.99998461
0.99982954
0.99967705
0.99952732
1.0001375
1.0001527
1.0001686
1.0001861
1.0002055
1.0002266
1.0002497
1.000275
1.0003025
1.0003323
1.0003647
1.0003997
1.0004373
1.0004777
1.0005209
1.0005668
1.0006153
1.0006661
1.000719
1.0007736
1.0008293
1.0008855
1.0009414
1.000996
1.0010484
1.0010973
1.0011414
1.0011792
1.001209
1.0012289
1.0012368
1.0012305
1.0012079
1.0011673
1.0011074
1.0010278
1.0009291
1.0008129
1.0006816
1.0005384
1.0003866
1.0002294
1.0000701
0.99991077
0.9997543
0.99960031
1.0001374
1.0001526
1.0001685
1.000186
1.0002053
1.0002265
1.0002496
1.0002747
1.0003022
1.0003319
1.0003642
1.0003991
1.0004366
1.0004768
1.0005198
1.0005654
1.0006136
1.0006642
1.0007169
1.0007713
1.000827
1.0008835
1.0009399
1.0009957
1.00105
1.0011017
1.0011498
1.001193
1.0012298
1.0012583
1.0012763
1.0012815
1.0012711
1.0012429
1.0011947
1.0011252
1.0010344
1.0009233
1.0007942
1.0006504
1.0004958
1.0003342
1.0001693
1.0000038
0.99984125
0.99968052
1.0001374
1.0001526
1.0001685
1.0001859
1.0002052
1.0002263
1.0002494
1.0002745
1.0003018
1.0003315
1.0003637
1.0003984
1.0004357
1.0004758
1.0005185
1.0005639
1.0006118
1.0006621
1.0007146
1.0007688
1.0008245
1.0008811
1.0009382
1.0009951
1.0010512
1.0011059
1.0011581
1.001207
1.0012512
1.0012889
1.0013181
1.0013359
1.0013396
1.0013257
1.0012914
1.0012344
1.0011535
1.0010489
1.0009228
1.0007783
1.00062
1.0004524
1.0002805
1.0001073
0.99993774
0.9997699
1.0001374
1.0001525
1.0001684
1.0001859
1.0002051
1.0002262
1.0002492
1.0002742
1.0003015
1.0003311
1.0003631
1.0003977
1.0004349
1.0004747
1.0005172
1.0005623
1.0006099
1.0006599
1.0007121
1.0007661
1.0008217
1.0008785
1.0009361
1.0009941
1.0010521
1.0011095
1.0011659
1.0012204
1.001272
1.0013192
1.0013599
1.0013913
1.00141
1.0014122
1.001394
1.0013516
1.0012828
1.0011866
1.0010643
1.000919
1.0007559
1.0005803
1.0003986
1.0002148
1.0000353
0.99985703
1.0001373
1.0001525
1.0001683
1.0001858
1.000205
1.000226
1.0002489
1.000274
1.0003012
1.0003307
1.0003626
1.000397
1.000434
1.0004736
1.0005158
1.0005607
1.000608
1.0006577
1.0007095
1.0007633
1.0008188
1.0008757
1.0009338
1.0009928
1.0010524
1.0011125
1.0011727
1.0012325
1.0012913
1.0013477
1.0013998
1.0014448
1.0014793
1.0014986
1.001498
1.0014723
1.0014178
1.0013317
1.0012145
1.0010684
1.0008994
1.0007136
1.0005198
1.0003229
1.0001317
0.99994275
1.0001373
1.0001524
1.0001683
1.0001857
1.0002049
1.0002258
1.0002487
1.0002737
1.0003008
1.0003302
1.000362
1.0003963
1.0004331
1.0004725
1.0005145
1.000559
1.0006061
1.0006555
1.000707
1.0007606
1.0008159
1.0008729
1.0009314
1.0009912
1.0010523
1.0011147
1.0011783
1.001243
1.0013083
1.0013732
1.0014361
1.0014944
1.0015443
1.0015811
1.001599
1.0015916
1.0015533
1.0014792
1.0013686
1.0012219
1.0010461
1.0008474
1.0006383
1.0004243
1.000218
1.0000146
1.0001372
1.0001524
1.0001682
1.0001856
1.0002047
1.0002257
1.0002485
1.0002734
1.0003005
1.0003298
1.0003615
1.0003956
1.0004322
1.0004714
1.0005132
1.0005575
1.0006042
1.0006533
1.0007046
1.0007579
1.0008131
1.0008701
1.0009289
1.0009894
1.0010517
1.0011161
1.0011827
1.0012516
1.0013227
1.0013953
1.001468
1.0015385
1.0016031
1.0016568
1.0016933
1.0017048
1.0016843
1.0016239
1.0015217
1.0013748
1.001192
1.0009777
1.0007505
1.0005156
1.0002922
1.0000738
1.0001372
1.0001523
1.0001681
1.0001855
1.0002046
1.0002255
1.0002483
1.0002732
1.0003001
1.0003294
1.0003609
1.0003949
1.0004314
1.0004704
1.000512
1.000556
1.0006025
1.0006513
1.0007023
1.0007554
1.0008104
1.0008674
1.0009264
1.0009875
1.0010508
1.0011169
1.001186
1.0012585
1.0013345
1.0014137
1.001495
1.0015763
1.0016543
1.0017238
1.0017782
1.0018087
1.0018066
1.0017612
1.0016691
1.0015229
1.0013332
1.0011009
1.0008533
1.0005924
1.0003489
1.0001121
1.0001371
1.0001522
1.000168
1.0001854
1.0002045
1.0002253
1.0002481
1.0002729
1.0002998
1.0003289
1.0003604
1.0003943
1.0004307
1.0004695
1.0005109
1.0005547
1.0006009
1.0006494
1.0007002
1.000753
1.0008079
1.0008649
1.000924
1.0009855
1.0010498
1.0011172
1.0011884
1.0012638
1.0013439
1.0014286
1.0015173
1.001608
1.0016977
1.0017814
1.0018524
1.001901
1.0019173
1.0018874
1.0018071
1.0016623
1.001467
1.0012144
1.0009454
1.0006534
1.0003891
1.0001327
1.0001371
1.0001522
1.0001679
1.0001853
1.0002043
1.0002252
1.0002479
1.0002727
1.0002995
1.0003286
1.00036
1.0003937
1.0004299
1.0004686
1.0005098
1.0005534
1.0005994
1.0006477
1.0006983
1.0007509
1.0008057
1.0008626
1.0009218
1.0009837
1.0010486
1.0011171
1.0011899
1.0012678
1.0013512
1.0014406
1.0015353
1.0016339
1.0017337
1.0018297
1.0019157
1.0019808
1.0020147
1.0020003
1.0019327
1.0017905
1.0015909
1.0013169
1.0010265
1.000698
1.0004127
1.0001325
1.000137
1.0001521
1.0001679
1.0001852
1.0002042
1.000225
1.0002477
1.0002724
1.0002992
1.0003282
1.0003595
1.0003932
1.0004293
1.0004678
1.0005088
1.0005523
1.0005981
1.0006462
1.0006965
1.000749
1.0008036
1.0008605
1.0009198
1.0009819
1.0010473
1.0011168
1.0011909
1.0012707
1.0013569
1.00145
1.0015497
1.0016548
1.001763
1.0018697
1.0019685
1.0020486
1.0020986
1.002099
1.0020444
1.0019055
1.0017032
1.0014076
1.0010971
1.0007277
1.0004228
1.0001151
1.000137
1.0001521
1.0001678
1.0001851
1.0002041
1.0002249
1.0002475
1.0002722
1.0002989
1.0003279
1.0003591
1.0003927
1.0004287
1.0004671
1.000508
1.0005513
1.0005969
1.0006448
1.000695
1.0007473
1.0008018
1.0008586
1.000918
1.0009803
1.0010462
1.0011163
1.0011915
1.0012729
1.0013613
1.0014573
1.0015611
1.0016716
1.0017868
1.0019022
1.0020121
1.0021051
1.0021695
1.0021836
1.0021417
1.0020066
1.0018029
1.0014866
1.0011576
1.0007445
1.0004219
1.0000834
1.0001369
1.000152
1.0001677
1.000185
1.000204
1.0002247
1.0002474
1.000272
1.0002987
1.0003275
1.0003587
1.0003922
1.0004281
1.0004664
1.0005072
1.0005503
1.0005958
1.0006436
1.0006936
1.0007458
1.0008002
1.000857
1.0009164
1.0009789
1.001045
1.0011157
1.0011919
1.0012744
1.0013646
1.0014631
1.0015702
1.001685
1.0018059
1.0019286
1.0020477
1.0021517
1.0022286
1.0022549
1.002225
1.002094
1.00189
1.0015548
1.0012096
1.0007521
1.0004129
1.0000425
1.0001369
1.0001519
1.0001676
1.0001849
1.0002039
1.0002246
1.0002472
1.0002718
1.0002984
1.0003272
1.0003583
1.0003918
1.0004276
1.0004658
1.0005064
1.0005495
1.0005948
1.0006425
1.0006923
1.0007444
1.0007988
1.0008555
1.0009149
1.0009776
1.001044
1.0011152
1.001192
1.0012756
1.0013672
1.0014676
1.0015773
1.0016957
1.0018212
1.0019499
1.0020767
1.0021899
1.0022775
1.0023144
1.0022953
1.0021684
1.0019649
1.0016129
1.0012535
1.0007519
1.0004009
0.9999996
1.0001368
1.0001519
1.0001675
1.0001848
1.0002037
1.0002245
1.000247
1.0002716
1.0002982
1.0003269
1.000358
1.0003914
1.0004271
1.0004652
1.0005058
1.0005487
1.0005939
1.0006415
1.0006912
1.0007432
1.0007975
1.0008542
1.0009137
1.0009764
1.0010431
1.0011146
1.001192
1.0012764
1.0013692
1.0014712
1.001583
1.0017043
1.0018336
1.0019671
1.0021002
1.0022211
1.0023177
1.0023636
1.0023538
1.0022304
1.0020273
1.0016604
1.0012887
1.0007452
1.0003896
0.99996622
1.0001367
1.0001518
1.0001675
1.0001847
1.0002036
1.0002243
1.0002469
1.0002714
1.0002979
1.0003267
1.0003577
1.000391
1.0004266
1.0004647
1.0005052
1.000548
1.0005931
1.0006406
1.0006902
1.0007421
1.0007963
1.000853
1.0009125
1.0009753
1.0010422
1.001114
1.0011919
1.001277
1.0013707
1.001474
1.0015876
1.0017111
1.0018434
1.001981
1.0021193
1.0022466
1.0023506
1.0024041
1.0024024
1.0022827
1.0020805
1.0017016
1.0013197
1.0007408
1.0003751
0.99993344
1.0001367
1.0001517
1.0001674
1.0001846
1.0002035
1.0002242
1.0002467
1.0002712
1.0002977
1.0003264
1.0003573
1.0003906
1.0004262
1.0004642
1.0005046
1.0005473
1.0005924
1.0006397
1.0006893
1.0007411
1.0007953
1.0008519
1.0009115
1.0009744
1.0010414
1.0011135
1.0011918
1.0012775
1.001372
1.0014764
1.0015914
1.0017168
1.0018517
1.0019925
1.0021348
1.0022672
1.0023774
1.0024376
1.0024435
1.0023279
1.002128
1.0017404
1.001351
1.0007391
1.000359
0.99989053
1.0001366
1.0001516
1.0001673
1.0001845
1.0002034
1.000224
1.0002465
1.000271
1.0002975
1.0003261
1.000357
1.0003902
1.0004258
1.0004637
1.000504
1.0005467
1.0005917
1.000639
1.0006885
1.0007402
1.0007943
1.000851
1.0009105
1.0009735
1.0010407
1.001113
1.0011916
1.0012778
1.0013729
1.0014781
1.0015942
1.0017212
1.001858
1.0020013
1.0021473
1.0022843
1.0023996
1.0024649
1.0024755
1.0023612
1.0021599
1.001762
1.001364
1.0007245
1.0003497
0.99986029
1.0001366
1.0001516
1.0001672
1.0001844
1.0002033
1.0002239
1.0002464
1.0002708
1.0002972
1.0003259
1.0003567
1.0003899
1.0004254
1.0004632
1.0005035
1.0005461
1.000591
1.0006382
1.0006876
1.0007394
1.0007934
1.0008501
1.0009097
1.0009728
1.0010401
1.0011127
1.0011916
1.0012781
1.0013738
1.0014799
1.0015972
1.0017256
1.0018644
1.0020105
1.0021597
1.0023
1.0024184
1.0024865
1.0024992
1.0023833
1.0021776
1.0017677
1.0013602
1.0006981
1.0003555
0.99990015
0.99851794
0.99851801
0.99851816
0.99851848
0.99851882
0.99851916
0.99851908
0.99851819
0.99851484
0.99850739
0.99849495
0.99847784
0.99845363
0.99840324
0.99832468
0.99823737
0.99819591
0.99818021
0.99818806
0.99820237
0.99821699
0.99822844
0.99822739
0.99823668
0.99826036
0.99829035
0.99831928
0.99834432
0.99836715
0.99838763
0.9984032
0.99841536
0.99842676
0.99843809
0.99844638
0.9984533
0.99846139
0.99846145
0.99846147
0.99846159
0.99846151
0.99846129
0.99846064
0.99845942
0.99845711
0.99845341
0.99844682
0.99843655
0.99842142
0.9983989
0.99838553
0.99835204
0.99832572
0.99831147
0.99830142
0.99830026
0.99830005
0.9982997
0.99829641
0.9982969
0.99829693
0.99829421
0.99828988
0.99828682
0.99828437
0.99828277
0.99828574
0.99829033
0.99829561
0.99830082
0.99830402
0.99830672
0.99841499
0.9984151
0.9984151
0.99841516
0.9984151
0.99841493
0.99841432
0.99841313
0.9984109
0.9984072
0.9984011
0.99839255
0.99837985
0.99836075
0.99834015
0.99831392
0.99829091
0.99827911
0.99827106
0.99826899
0.99826857
0.99826913
0.99826906
0.99827192
0.99827645
0.99828084
0.9982846
0.99828837
0.99829252
0.99829635
0.99829966
0.99830214
0.99830344
0.99830401
0.99830391
0.99830412
0.99837434
0.99837446
0.99837447
0.99837462
0.99837462
0.9983746
0.99837435
0.99837365
0.99837212
0.99836952
0.99836518
0.99835963
0.99835088
0.99833893
0.99832619
0.99831301
0.99829538
0.99828848
0.99828172
0.99827751
0.99827503
0.99827388
0.99827223
0.99827055
0.99826858
0.99826678
0.99826566
0.99826508
0.99826493
0.99826532
0.99826634
0.99826758
0.99826873
0.99826978
0.99827081
0.99827181
0.99833797
0.99833811
0.99833812
0.99833831
0.99833834
0.99833837
0.99833827
0.99833794
0.99833694
0.99833512
0.99833204
0.99832825
0.99832171
0.99831451
0.9983032
0.99829596
0.99827971
0.99827466
0.99826851
0.99826514
0.99826302
0.99826224
0.99826201
0.99826239
0.99826233
0.99826178
0.99826069
0.99825948
0.99825839
0.99825749
0.99825674
0.99825619
0.99825592
0.99825578
0.99825569
0.99825603
0.99830495
0.99830512
0.99830513
0.99830535
0.99830541
0.99830555
0.99830555
0.99830547
0.99830505
0.99830408
0.99830221
0.99830012
0.99829578
0.99829271
0.99828481
0.99828405
0.99827123
0.99826889
0.99826315
0.99825961
0.99825648
0.99825487
0.99825392
0.99825319
0.99825232
0.99825139
0.99825038
0.99824934
0.99824833
0.99824746
0.99824674
0.99824618
0.99824577
0.9982456
0.99824552
0.99824572
0.99827441
0.99827459
0.99827461
0.99827485
0.99827492
0.9982752
0.99827526
0.99827529
0.99827517
0.99827476
0.99827393
0.99827296
0.99827031
0.99826931
0.998263
0.99826631
0.99825508
0.99825392
0.99824877
0.99824549
0.99824208
0.9982402
0.99823927
0.99823907
0.99823894
0.99823872
0.99823834
0.99823788
0.99823739
0.99823697
0.99823663
0.99823642
0.99823632
0.99823636
0.99823647
0.99823676
0.99824558
0.99824579
0.99824582
0.99824609
0.99824621
0.99824658
0.99824675
0.99824706
0.99824711
0.99824709
0.99824693
0.99824673
0.99824571
0.99824652
0.99824172
0.99824868
0.99823899
0.99823842
0.99823429
0.99823121
0.99822785
0.99822579
0.99822453
0.99822414
0.99822413
0.99822424
0.9982243
0.99822434
0.99822431
0.9982243
0.9982243
0.99822436
0.9982244
0.99822471
0.99822495
0.99822532
0.99821755
0.99821777
0.99821782
0.99821812
0.99821829
0.99821871
0.99821898
0.99821953
0.99821975
0.99822023
0.99822034
0.998221
0.99822075
0.99822337
0.99821977
0.99822966
0.99822222
0.99822125
0.99821803
0.99821467
0.99821144
0.99820928
0.99820792
0.99820751
0.99820758
0.99820823
0.99820869
0.99820919
0.99820945
0.99820981
0.99820991
0.99821028
0.99821035
0.99821083
0.998211
0.99821145
0.99818995
0.9981902
0.99819026
0.99819059
0.99819081
0.99819127
0.99819166
0.99819231
0.99819275
0.99819358
0.99819396
0.99819539
0.99819554
0.99819884
0.99819675
0.99820728
0.99820421
0.99820297
0.99820103
0.99819766
0.99819465
0.99819256
0.99819113
0.99819065
0.99819068
0.99819143
0.99819218
0.99819302
0.9981935
0.99819419
0.99819445
0.99819502
0.99819522
0.99819577
0.99819603
0.99819652
0.99816242
0.9981627
0.99816277
0.99816314
0.9981634
0.99816391
0.99816442
0.99816513
0.99816588
0.9981668
0.99816778
0.99816944
0.99817044
0.99817379
0.99817305
0.99818321
0.9981843
0.9981831
0.99818259
0.99817952
0.99817681
0.99817488
0.99817351
0.99817307
0.99817309
0.99817387
0.99817476
0.99817583
0.99817649
0.99817734
0.99817779
0.99817844
0.99817881
0.99817938
0.9981797
0.99818025
0.99813472
0.99813503
0.99813511
0.99813552
0.99813582
0.99813639
0.998137
0.99813782
0.99813879
0.99813981
0.99814137
0.99814303
0.99814537
0.99814851
0.99814972
0.99815796
0.99816412
0.99816234
0.99816331
0.99816065
0.99815842
0.99815672
0.9981555
0.99815517
0.99815524
0.99815601
0.99815691
0.99815807
0.99815884
0.99815977
0.99816033
0.99816102
0.99816147
0.99816206
0.99816243
0.99816302
0.99810662
0.99810696
0.99810706
0.99810751
0.99810786
0.99810849
0.99810919
0.99811013
0.99811124
0.99811256
0.99811439
0.99811645
0.9981196
0.99812253
0.99812689
0.99813264
0.99814278
0.9981406
0.99814332
0.99814108
0.99813941
0.99813789
0.99813683
0.99813662
0.99813674
0.99813759
0.99813845
0.99813965
0.99814045
0.99814144
0.99814204
0.99814279
0.99814327
0.99814388
0.99814428
0.9981449
0.99807798
0.99807836
0.99807848
0.99807897
0.99807936
0.99808007
0.99808086
0.99808192
0.9980832
0.99808477
0.99808689
0.99808935
0.99809319
0.9980962
0.9981032
0.99810698
0.99812006
0.99811762
0.99812204
0.99812036
0.99811933
0.99811813
0.99811736
0.99811738
0.99811762
0.99811866
0.99811949
0.99812077
0.99812158
0.99812265
0.99812328
0.9981241
0.99812459
0.99812526
0.99812569
0.99812634
0.99804853
0.99804895
0.99804909
0.99804964
0.99805009
0.99805086
0.99805175
0.99805295
0.99805439
0.99805621
0.9980586
0.99806149
0.99806583
0.99806925
0.99807802
0.99808042
0.9980963
0.99809418
0.99810013
0.99809916
0.99809858
0.99809762
0.99809706
0.99809724
0.99809758
0.99809878
0.99809964
0.99810102
0.99810185
0.99810301
0.99810365
0.99810455
0.99810505
0.99810577
0.9981062
0.99810688
0.99801817
0.99801865
0.9980188
0.99801941
0.9980199
0.99802076
0.99802174
0.99802307
0.99802468
0.99802674
0.99802942
0.99803274
0.9980375
0.99804152
0.99805135
0.99805317
0.99807193
0.99807049
0.99807748
0.99807733
0.9980771
0.99807652
0.99807621
0.99807654
0.99807705
0.99807836
0.9980793
0.99808078
0.99808167
0.99808294
0.99808363