/*--------------------------------*- C++ -*----------------------------------*\
| =========                 |                                                 |
| \\      /  F ield         | OpenFOAM: The Open Source CFD Toolbox           |
|  \\    /   O peration     | Version:  v2006                                 |
|   \\  /    A nd           | Website:  www.openfoam.com                      |
|    \\/     M anipulation  |                                                 |
\*---------------------------------------------------------------------------*/
FoamFile
{
    version     2.0;
    format      ascii;
    class       volScalarField;
    location    "6000";
    object      rho;
}
// * * * * * * * * * * * * * * * * * * * * * * * * * * * * * * * * * * * * * //

dimensions      [1 -3 0 0 0 0 0];


internalField   nonuniform List<scalar> 
21256
(
1.0000299
1.0000285
1.0000279
1.0000277
1.0000277
1.0000278
1.0000278
1.0000278
1.0000278
1.0000279
1.0000279
1.0000279
1.0000279
1.0000279
1.0000279
1.0000279
1.000028
1.000028
1.000028
1.000028
1.000028
1.000028
1.0000279
1.0000279
1.0000279
1.0000279
1.0000278
1.0000278
1.0000279
1.0000279
1.0000278
1.0000278
1.0000277
1.0000277
1.0000277
1.0000277
1.0000274
1.0000262
1.0000257
1.0000256
1.0000256
1.0000257
1.0000257
1.0000257
1.0000257
1.0000258
1.0000258
1.0000258
1.0000258
1.0000258
1.0000258
1.0000258
1.0000259
1.0000259
1.0000259
1.0000259
1.0000259
1.0000259
1.0000258
1.0000258
1.0000258
1.0000258
1.0000257
1.0000257
1.0000258
1.0000258
1.0000257
1.0000257
1.0000257
1.0000257
1.0000256
1.0000256
1.0000253
1.0000243
1.0000239
1.0000238
1.0000239
1.0000239
1.0000239
1.0000239
1.000024
1.000024
1.000024
1.000024
1.000024
1.000024
1.000024
1.0000241
1.0000241
1.0000241
1.0000241
1.0000241
1.0000241
1.0000241
1.000024
1.000024
1.000024
1.000024
1.0000239
1.0000239
1.000024
1.000024
1.000024
1.0000239
1.0000239
1.0000239
1.0000239
1.0000239
1.000024
1.0000232
1.0000229
1.0000228
1.0000229
1.0000229
1.000023
1.000023
1.000023
1.000023
1.000023
1.000023
1.000023
1.000023
1.0000231
1.0000231
1.0000231
1.0000231
1.0000231
1.0000231
1.0000231
1.0000231
1.0000231
1.0000231
1.000023
1.000023
1.0000229
1.0000229
1.000023
1.0000231
1.000023
1.0000229
1.0000229
1.0000229
1.0000229
1.0000229
1.0000231
1.0000223
1.0000221
1.0000221
1.0000222
1.0000222
1.0000223
1.0000222
1.0000223
1.0000223
1.0000223
1.0000223
1.0000223
1.0000223
1.0000224
1.0000224
1.0000224
1.0000224
1.0000224
1.0000224
1.0000224
1.0000224
1.0000224
1.0000224
1.0000223
1.0000223
1.0000223
1.0000222
1.0000222
1.0000224
1.0000224
1.0000222
1.0000222
1.0000222
1.0000222
1.0000222
1.0000198
1.0000191
1.0000191
1.0000191
1.0000192
1.0000192
1.0000192
1.0000192
1.0000193
1.0000193
1.0000193
1.0000193
1.0000193
1.0000193
1.0000194
1.0000194
1.0000194
1.0000194
1.0000194
1.0000194
1.0000194
1.0000194
1.0000194
1.0000193
1.0000193
1.0000193
1.0000193
1.0000192
1.0000191
1.0000192
1.0000193
1.0000192
1.0000191
1.000019
1.0000192
1.0000192
1.0000196
1.0000186
1.000019
1.000019
1.0000189
1.0000191
1.000019
1.0000191
1.000019
1.0000191
1.0000191
1.0000191
1.0000191
1.0000191
1.0000192
1.0000192
1.0000191
1.0000191
1.0000192
1.0000192
1.0000192
1.0000191
1.0000192
1.000019
1.000019
1.0000191
1.0000191
1.0000188
1.0000188
1.0000187
1.000019
1.000019
1.0000186
1.0000184
1.0000189
1.0000188
1.0000323
1.0000316
1.0000321
1.0000316
1.0000321
1.0000319
1.0000319
1.0000319
1.0000319
1.0000319
1.0000318
1.0000318
1.0000319
1.0000319
1.0000318
1.000032
1.000032
1.0000321
1.000032
1.0000319
1.0000319
1.0000319
1.0000321
1.000032
1.0000319
1.0000319
1.0000319
1.0000319
1.0000318
1.0000318
1.0000319
1.000032
1.0000321
1.0000315
1.0000319
1.0000319
1.000019
1.0000199
1.0000191
1.0000198
1.0000194
1.0000193
1.0000194
1.0000194
1.0000196
1.0000197
1.0000198
1.00002
1.00002
1.00002
1.0000199
1.0000197
1.0000197
1.0000194
1.0000192
1.000019
1.0000191
1.0000193
1.0000192
1.0000194
1.0000193
1.0000192
1.0000193
1.0000193
1.0000191
1.0000188
1.0000184
1.0000187
1.000019
1.0000198
1.0000186
1.0000185
1.0000835
1.0000835
1.0000835
1.0000836
1.0000836
1.0000836
1.0000836
1.0000837
1.0000837
1.0000838
1.0000838
1.0000838
1.0000839
1.0000839
1.0000839
1.000084
1.000084
1.0000841
1.0000841
1.0000841
1.000084
1.0000841
1.0000841
1.0000841
1.000084
1.000084
1.000084
1.000084
1.000084
1.000084
1.0000841
1.0000843
1.0000848
1.0000861
1.0000885
1.000093
1.0000725
1.0000726
1.0000726
1.0000726
1.0000726
1.0000727
1.0000727
1.0000727
1.0000728
1.0000728
1.0000728
1.0000728
1.0000729
1.0000729
1.0000729
1.000073
1.000073
1.000073
1.000073
1.000073
1.000073
1.000073
1.000073
1.000073
1.000073
1.000073
1.000073
1.000073
1.0000729
1.0000729
1.000073
1.0000732
1.0000736
1.0000747
1.0000769
1.0000807
1.0000631
1.0000631
1.0000631
1.0000632
1.0000632
1.0000632
1.0000632
1.0000633
1.0000633
1.0000633
1.0000633
1.0000633
1.0000634
1.0000634
1.0000634
1.0000635
1.0000635
1.0000635
1.0000635
1.0000635
1.0000635
1.0000635
1.0000635
1.0000635
1.0000635
1.0000634
1.0000634
1.0000634
1.0000634
1.0000634
1.0000634
1.0000635
1.0000639
1.0000648
1.0000667
1.0000701
1.0000552
1.0000552
1.0000553
1.0000553
1.0000553
1.0000553
1.0000554
1.0000554
1.0000554
1.0000554
1.0000554
1.0000554
1.0000555
1.0000555
1.0000555
1.0000556
1.0000556
1.0000556
1.0000556
1.0000556
1.0000556
1.0000555
1.0000555
1.0000555
1.0000555
1.0000555
1.0000555
1.0000555
1.0000555
1.0000554
1.0000554
1.0000555
1.0000559
1.0000566
1.0000583
1.0000613
1.0000485
1.0000485
1.0000485
1.0000486
1.0000486
1.0000486
1.0000486
1.0000487
1.0000487
1.0000487
1.0000487
1.0000487
1.0000487
1.0000487
1.0000488
1.0000488
1.0000488
1.0000488
1.0000488
1.0000488
1.0000488
1.0000488
1.0000488
1.0000488
1.0000488
1.0000487
1.0000487
1.0000487
1.0000487
1.0000487
1.0000487
1.0000487
1.000049
1.0000496
1.000051
1.0000537
1.0000428
1.0000428
1.0000428
1.0000429
1.0000429
1.0000429
1.0000429
1.000043
1.000043
1.000043
1.000043
1.000043
1.000043
1.000043
1.0000431
1.0000431
1.0000431
1.0000431
1.0000431
1.0000431
1.0000431
1.0000431
1.0000431
1.0000431
1.0000431
1.000043
1.000043
1.000043
1.000043
1.0000429
1.0000429
1.000043
1.0000432
1.0000437
1.0000449
1.0000473
1.0000379
1.000038
1.000038
1.000038
1.000038
1.000038
1.0000381
1.0000381
1.0000381
1.0000381
1.0000381
1.0000381
1.0000381
1.0000382
1.0000382
1.0000382
1.0000383
1.0000383
1.0000382
1.0000382
1.0000382
1.0000382
1.0000382
1.0000382
1.0000382
1.0000381
1.0000381
1.0000381
1.0000381
1.0000381
1.000038
1.000038
1.0000382
1.0000386
1.0000397
1.0000417
1.0000338
1.0000338
1.0000338
1.0000338
1.0000338
1.0000339
1.0000339
1.000034
1.0000339
1.0000339
1.0000339
1.000034
1.000034
1.000034
1.000034
1.0000341
1.0000341
1.0000341
1.0000341
1.0000341
1.000034
1.000034
1.000034
1.000034
1.000034
1.000034
1.000034
1.0000339
1.0000339
1.0000339
1.0000339
1.0000338
1.0000339
1.0000343
1.0000352
1.000037
1.0000303
1.0000303
1.0000304
1.0000304
1.0000304
1.0000304
1.0000305
1.0000305
1.0000305
1.0000305
1.0000305
1.0000305
1.0000305
1.0000306
1.0000306
1.0000306
1.0000306
1.0000306
1.0000306
1.0000306
1.0000306
1.0000306
1.0000305
1.0000305
1.0000305
1.0000305
1.0000305
1.0000305
1.0000305
1.0000305
1.0000304
1.0000304
1.0000304
1.0000307
1.0000314
1.000033
1.000106
1.0001177
1.0001299
1.0001434
1.0001584
1.0001748
1.0001928
1.0002125
1.000234
1.0002573
1.0002827
1.0003101
1.0003396
1.0003713
1.0004052
1.0004413
1.0004795
1.0005194
1.0005608
1.0006031
1.0006457
1.0006876
1.0007277
1.0007649
1.0007975
1.0008236
1.0008423
1.000851
1.0008484
1.0008332
1.0008039
1.0007611
1.0007009
1.0006297
1.0005448
1.0004477
1.00034
1.0002251
1.0001031
0.9999751
0.99984429
0.99971288
0.99958204
0.99945334
0.99932569
0.99920451
1.0001012
1.0001126
1.0001246
1.0001377
1.0001522
1.0001681
1.0001856
1.0002046
1.0002253
1.0002479
1.0002725
1.0002991
1.0003279
1.0003589
1.000392
1.0004272
1.0004644
1.0005034
1.0005438
1.0005851
1.0006267
1.0006678
1.0007074
1.0007442
1.0007767
1.0008034
1.0008227
1.0008328
1.0008323
1.0008198
1.000794
1.0007551
1.0007019
1.0006353
1.0005565
1.0004664
1.000367
1.0002601
1.0001466
1.0000284
0.99990699
0.99978427
0.99966139
0.99954015
0.99941902
0.99930615
1.0000982
1.0001093
1.0001208
1.0001335
1.0001476
1.000163
1.0001799
1.0001984
1.0002185
1.0002405
1.0002644
1.0002902
1.0003181
1.0003482
1.0003803
1.0004145
1.0004506
1.0004883
1.0005275
1.0005676
1.0006079
1.0006477
1.000686
1.0007216
1.0007531
1.000779
1.0007977
1.0008076
1.0008072
1.0007954
1.0007708
1.0007336
1.0006832
1.0006198
1.0005449
1.0004593
1.0003649
1.0002633
1.0001559
1.0000443
0.99992995
0.99981468
0.99969948
0.99958593
0.99947311
0.99936569
1.0000968
1.0001077
1.0001189
1.0001314
1.0001451
1.0001602
1.0001767
1.0001948
1.0002145
1.0002359
1.0002592
1.0002845
1.0003117
1.000341
1.0003723
1.0004055
1.0004407
1.0004774
1.0005155
1.0005544
1.0005935
1.0006321
1.000669
1.0007034
1.0007335
1.0007581
1.0007756
1.0007844
1.0007831
1.0007705
1.0007454
1.0007078
1.0006573
1.0005942
1.0005199
1.0004353
1.0003421
1.0002421
1.0001365
1.0000269
0.99991507
0.99980251
0.99969026
0.9995798
0.99947047
0.99936607
1.0000961
1.0001069
1.000118
1.0001302
1.0001438
1.0001587
1.000175
1.0001928
1.0002122
1.0002333
1.0002562
1.000281
1.0003077
1.0003365
1.0003672
1.0003998
1.0004342
1.0004702
1.0005074
1.0005454
1.0005836
1.0006211
1.000657
1.0006903
1.0007193
1.0007427
1.0007591
1.0007667
1.0007643
1.0007506
1.0007245
1.0006859
1.0006346
1.0005707
1.0004957
1.0004105
1.0003168
1.0002164
1.0001105
1.0000008
0.99988888
0.99977634
0.99966419
0.99955386
0.99944497
0.99934065
1.0000958
1.0001065
1.0001175
1.0001297
1.0001431
1.0001579
1.000174
1.0001916
1.0002108
1.0002317
1.0002544
1.0002789
1.0003053
1.0003337
1.000364
1.0003962
1.0004301
1.0004656
1.0005022
1.0005396
1.0005771
1.0006139
1.0006491
1.0006815
1.0007097
1.0007323
1.0007478
1.0007546
1.0007513
1.0007368
1.0007099
1.0006705
1.0006185
1.0005539
1.0004782
1.0003924
1.000298
1.000197
1.0000906
0.99998036
0.99986799
0.99975501
0.99964248
0.99953175
0.9994227
0.99931789
1.0000957
1.0001063
1.0001173
1.0001294
1.0001427
1.0001574
1.0001734
1.0001909
1.00021
1.0002308
1.0002533
1.0002776
1.0003038
1.000332
1.000362
1.0003939
1.0004276
1.0004627
1.0004989
1.0005359
1.000573
1.0006093
1.000644
1.0006759
1.0007036
1.0007257
1.0007407
1.0007469
1.0007432
1.0007282
1.0007009
1.0006611
1.0006087
1.0005438
1.0004677
1.0003815
1.0002869
1.0001855
1.0000788
0.99996832
0.99985571
0.99974251
0.99962976
0.99951879
0.99940966
0.99930452
1.0000957
1.0001062
1.0001172
1.0001292
1.0001425
1.0001571
1.0001731
1.0001905
1.0002095
1.0002302
1.0002526
1.0002768
1.0003029
1.0003309
1.0003608
1.0003925
1.0004259
1.0004608
1.0004969
1.0005336
1.0005704
1.0006064
1.0006408
1.0006725
1.0006999
1.0007217
1.0007365
1.0007425
1.0007387
1.0007235
1.0006961
1.0006562
1.0006037
1.0005388
1.0004627
1.0003765
1.0002817
1.0001802
1.0000734
0.99996281
0.99985011
0.9997368
0.99962395
0.99951285
0.99940369
0.99929837
1.0000957
1.0001062
1.0001171
1.0001292
1.0001425
1.000157
1.0001729
1.0001903
1.0002092
1.0002298
1.0002522
1.0002763
1.0003023
1.0003302
1.00036
1.0003916
1.0004249
1.0004596
1.0004955
1.0005321
1.0005687
1.0006047
1.0006389
1.0006704
1.0006977
1.0007195
1.0007343
1.0007404
1.0007366
1.0007217
1.0006944
1.0006547
1.0006024
1.0005377
1.0004618
1.0003757
1.000281
1.0001795
1.0000726
0.99996198
0.99984924
0.99973584
0.99962291
0.99951168
0.99940247
0.99929697
1.0000957
1.0001062
1.0001171
1.0001291
1.0001424
1.0001569
1.0001728
1.0001902
1.0002091
1.0002296
1.0002519
1.000276
1.0003019
1.0003297
1.0003594
1.000391
1.0004242
1.0004588
1.0004946
1.0005311
1.0005677
1.0006035
1.0006377
1.0006693
1.0006966
1.0007185
1.0007335
1.0007398
1.0007365
1.0007219
1.0006951
1.0006559
1.000604
1.0005398
1.0004642
1.0003784
1.0002839
1.0001825
1.0000756
0.99996493
0.99985211
0.99973859
0.99962551
0.99951409
0.99940473
0.99929901
1.0000957
1.0001062
1.0001171
1.0001291
1.0001424
1.0001569
1.0001728
1.0001901
1.000209
1.0002295
1.0002517
1.0002757
1.0003016
1.0003294
1.000359
1.0003905
1.0004236
1.0004582
1.000494
1.0005304
1.0005669
1.0006028
1.0006371
1.0006687
1.0006962
1.0007184
1.0007337
1.0007406
1.0007379
1.000724
1.0006979
1.0006596
1.0006085
1.000545
1.00047
1.0003847
1.0002905
1.0001892
1.0000823
0.99997164
0.99985869
0.99974496
0.99963165
0.99951993
0.9994103
0.99930422
1.0000957
1.0001062
1.0001171
1.0001291
1.0001424
1.0001569
1.0001727
1.00019
1.0002089
1.0002294
1.0002516
1.0002756
1.0003014
1.0003291
1.0003587
1.0003901
1.0004232
1.0004577
1.0004934
1.0005298
1.0005664
1.0006023
1.0006367
1.0006684
1.0006963
1.000719
1.0007349
1.0007425
1.0007407
1.0007279
1.0007031
1.000666
1.0006161
1.0005538
1.0004797
1.0003951
1.0003015
1.0002004
1.0000936
0.9999828
0.99986963
0.99975558
0.99964189
0.99952973
0.99941971
0.99931316
1.0000957
1.0001062
1.0001171
1.0001291
1.0001424
1.0001569
1.0001727
1.00019
1.0002088
1.0002293
1.0002514
1.0002754
1.0003012
1.0003289
1.0003584
1.0003898
1.0004228
1.0004573
1.0004929
1.0005293
1.0005659
1.0006019
1.0006365
1.0006685
1.0006969
1.0007201
1.0007369
1.0007457
1.0007452
1.000734
1.000711
1.0006756
1.0006276
1.0005669
1.0004942
1.0004108
1.0003179
1.0002172
1.0001105
0.9999996
0.99988611
0.99977158
0.99965732
0.99954449
0.9994338
0.99932639
1.0000957
1.0001062
1.0001171
1.0001291
1.0001423
1.0001568
1.0001726
1.0001899
1.0002087
1.0002292
1.0002513
1.0002752
1.000301
1.0003286
1.0003581
1.0003894
1.0004224
1.0004568
1.0004924
1.0005288
1.0005654
1.0006015
1.0006363
1.0006687
1.0006977
1.0007219
1.0007399
1.0007503
1.0007516
1.0007426
1.0007221
1.0006893
1.0006438
1.0005854
1.0005149
1.000433
1.0003413
1.0002413
1.0001348
1.0000237
0.9999097
0.99979448
0.9996794
0.99956565
0.99945415
0.99934576
1.0000957
1.0001062
1.0001171
1.0001291
1.0001423
1.0001568
1.0001726
1.0001898
1.0002086
1.000229
1.0002511
1.000275
1.0003007
1.0003283
1.0003577
1.0003889
1.0004218
1.0004562
1.0004918
1.0005281
1.0005648
1.0006011
1.0006362
1.0006692
1.000699
1.0007243
1.0007439
1.0007563
1.0007602
1.0007542
1.000737
1.0007077
1.0006657
1.0006107
1.000543
1.0004635
1.0003734
1.0002743
1.0001681
1.0000568
0.99994212
0.99982589
0.9997096
0.99959443
0.99948156
0.99937139
1.0000957
1.0001062
1.0001171
1.000129
1.0001423
1.0001567
1.0001725
1.0001897
1.0002085
1.0002289
1.0002509
1.0002748
1.0003004
1.0003279
1.0003573
1.0003884
1.0004212
1.0004555
1.000491
1.0005273
1.0005641
1.0006005
1.0006361
1.0006697
1.0007005
1.0007273
1.0007489
1.0007639
1.0007711
1.0007689
1.000756
1.0007314
1.0006941
1.0006435
1.0005799
1.0005036
1.0004158
1.0003181
1.0002123
1.0001006
0.99998506
0.99986744
0.99974954
0.99963256
0.99951809
0.99940598
1.0000957
1.0001062
1.000117
1.000129
1.0001422
1.0001566
1.0001724
1.0001896
1.0002083
1.0002287
1.0002507
1.0002744
1.0003
1.0003274
1.0003567
1.0003877
1.0004204
1.0004546
1.00049
1.0005263
1.0005631
1.0005998
1.0006358
1.0006702
1.0007022
1.0007308
1.0007548
1.0007731
1.0007842
1.0007868
1.0007794
1.0007607
1.0007294
1.0006848
1.0006264
1.0005544
1.0004698
1.0003739
1.0002689
1.0001567
1.0000398
0.99992019
0.99979993
0.99968021
0.99956315
0.99944775
1.0000957
1.0001062
1.000117
1.000129
1.0001421
1.0001566
1.0001723
1.0001895
1.0002082
1.0002284
1.0002504
1.0002741
1.0002996
1.0003269
1.000356
1.0003869
1.0004195
1.0004535
1.0004888
1.0005251
1.000562
1.000599
1.0006354
1.0006707
1.0007041
1.0007347
1.0007615
1.0007835
1.0007993
1.0008075
1.0008067
1.0007952
1.0007715
1.0007343
1.0006827
1.0006164
1.000536
1.0004427
1.0003385
1.0002258
1.0001071
0.99998479
0.99986145
0.99973831
0.99961827
0.99949939
1.0000957
1.0001062
1.000117
1.0001289
1.0001421
1.0001565
1.0001722
1.0001893
1.000208
1.0002282
1.0002501
1.0002737
1.0002991
1.0003263
1.0003553
1.000386
1.0004184
1.0004523
1.0004875
1.0005238
1.0005607
1.0005979
1.0006349
1.0006711
1.000706
1.0007388
1.0007686
1.0007947
1.0008157
1.0008304
1.0008372
1.0008341
1.0008194
1.0007912
1.000748
1.0006889
1.0006141
1.0005242
1.0004212
1.0003076
1.0001864
1.0000604
0.99993268
0.9998046
0.99967999
0.99955562
1.0000956
1.0001061
1.000117
1.0001289
1.000142
1.0001564
1.0001721
1.0001892
1.0002078
1.0002279
1.0002497
1.0002733
1.0002985
1.0003256
1.0003544
1.000385
1.0004172
1.000451
1.0004861
1.0005222
1.0005592
1.0005966
1.0006342
1.0006713
1.0007077
1.0007427
1.0007758
1.0008061
1.0008327
1.0008544
1.0008694
1.0008757
1.0008713
1.0008536
1.0008205
1.0007704
1.0007025
1.000617
1.0005157
1.0004011
1.0002766
1.0001457
1.0000123
0.99987813
0.99974825
0.9996181
1.0000956
1.0001061
1.0001169
1.0001288
1.0001419
1.0001563
1.000172
1.000189
1.0002076
1.0002277
1.0002494
1.0002728
1.000298
1.0003249
1.0003536
1.000384
1.000416
1.0004496
1.0004845
1.0005206
1.0005576
1.0005952
1.0006332
1.0006713
1.0007091
1.0007464
1.0007826
1.0008172
1.0008495
1.0008782
1.0009018
1.0009182
1.0009249
1.000919
1.0008976
1.000858
1.0007987
1.0007188
1.0006198
1.0005039
1.0003752
1.0002377
1.0000967
0.99995413
0.99981668
0.99967827
1.0000955
1.000106
1.0001168
1.0001287
1.0001418
1.0001562
1.0001718
1.0001888
1.0002073
1.0002274
1.000249
1.0002724
1.0002974
1.0003242
1.0003527
1.0003829
1.0004148
1.0004482
1.0004829
1.0005189
1.0005559
1.0005937
1.0006322
1.0006711
1.0007103
1.0007496
1.0007887
1.0008274
1.0008651
1.0009007
1.0009328
1.0009594
1.0009777
1.0009844
1.0009759
1.0009484
1.0008993
1.0008263
1.0007305
1.0006131
1.0004794
1.0003336
1.0001829
1.00003
0.99988386
0.99973693
1.0000955
1.000106
1.0001168
1.0001286
1.0001417
1.000156
1.0001716
1.0001886
1.0002071
1.000227
1.0002486
1.0002719
1.0002968
1.0003235
1.0003519
1.0003819
1.0004136
1.0004468
1.0004814
1.0005172
1.0005542
1.0005921
1.000631
1.0006706
1.000711
1.0007522
1.000794
1.0008364
1.000879
1.0009211
1.0009613
1.0009977
1.0010276
1.0010471
1.0010522
1.0010379
1.0010004
1.0009358
1.0008443
1.0007255
1.0005861
1.0004296
1.000267
1.0001007
0.99994322
0.99978514
1.0000954
1.0001059
1.0001167
1.0001285
1.0001416
1.0001559
1.0001715
1.0001884
1.0002068
1.0002267
1.0002483
1.0002714
1.0002962
1.0003228
1.000351
1.0003809
1.0004124
1.0004454
1.0004798
1.0005156
1.0005525
1.0005905
1.0006297
1.00067
1.0007114
1.0007541
1.0007983
1.000844
1.000891
1.0009389
1.0009865
1.001032
1.0010727
1.0011048
1.0011236
1.0011231
1.0010985
1.0010433
1.0009576
1.0008376
1.0006923
1.000523
1.0003464
1.0001637
0.99999344
0.99982342
1.0000954
1.0001059
1.0001166
1.0001285
1.0001415
1.0001558
1.0001713
1.0001882
1.0002066
1.0002265
1.0002479
1.000271
1.0002957
1.0003221
1.0003502
1.0003799
1.0004113
1.0004441
1.0004784
1.000514
1.0005509
1.000589
1.0006284
1.0006692
1.0007115
1.0007556
1.0008018
1.0008502
1.000901
1.0009539
1.001008
1.0010616
1.0011123
1.0011561
1.0011882
1.0012015
1.0011903
1.0011455
1.0010671
1.0009462
1.0007956
1.000611
1.0004193
1.0002157
1.0000302
0.99984546
1.0000953
1.0001058
1.0001166
1.0001284
1.0001415
1.0001557
1.0001712
1.0001881
1.0002064
1.0002262
1.0002476
1.0002706
1.0002952
1.0003215
1.0003495
1.0003791
1.0004102
1.0004429
1.000477
1.0005125
1.0005494
1.0005876
1.0006272
1.0006683
1.0007114
1.0007566
1.0008044
1.0008551
1.0009091
1.0009662
1.0010258
1.0010865
1.001146
1.0012003
1.0012448
1.0012712
1.0012736
1.0012397
1.0011699
1.0010486
1.000894
1.000692
1.0004847
1.0002549
1.0000532
0.99985397
1.0000953
1.0001058
1.0001165
1.0001283
1.0001414
1.0001556
1.0001711
1.0001879
1.0002062
1.000226
1.0002473
1.0002702
1.0002947
1.000321
1.0003488
1.0003783
1.0004093
1.0004418
1.0004758
1.0005112
1.000548
1.0005862
1.000626
1.0006675
1.0007111
1.0007572
1.0008064
1.000859
1.0009156
1.0009762
1.0010404
1.0011071
1.0011741
1.0012377
1.0012932
1.0013318
1.0013472
1.001324
1.001264
1.0011428
1.0009858
1.0007644
1.0005421
1.0002802
1.000065
0.99984933
1.0000953
1.0001057
1.0001165
1.0001283
1.0001413
1.0001555
1.000171
1.0001878
1.000206
1.0002257
1.000247
1.0002699
1.0002943
1.0003204
1.0003482
1.0003775
1.0004085
1.0004409
1.0004748
1.0005101
1.0005468
1.000585
1.0006249
1.0006667
1.0007107
1.0007576
1.0008078
1.0008619
1.0009207
1.0009842
1.0010522
1.0011239
1.0011972
1.0012686
1.0013338
1.0013833
1.0014106
1.0013978
1.001348
1.0012274
1.0010694
1.0008271
1.0005918
1.0002936
1.0000711
0.99983339
1.0000952
1.0001057
1.0001164
1.0001282
1.0001412
1.0001554
1.0001708
1.0001876
1.0002058
1.0002255
1.0002467
1.0002695
1.0002939
1.00032
1.0003476
1.0003769
1.0004077
1.00044
1.0004738
1.000509
1.0005457
1.0005839
1.0006239
1.0006659
1.0007103
1.0007578
1.0008089
1.0008642
1.0009247
1.0009905
1.0010617
1.0011374
1.001216
1.0012939
1.0013674
1.0014265
1.0014644
1.0014611
1.0014214
1.0013014
1.0011438
1.0008804
1.0006352
1.0002987
1.0000745
0.99980233
1.0000952
1.0001056
1.0001164
1.0001281
1.0001411
1.0001553
1.0001707
1.0001875
1.0002057
1.0002253
1.0002465
1.0002692
1.0002936
1.0003196
1.0003471
1.0003763
1.000407
1.0004393
1.000473
1.0005081
1.0005447
1.000583
1.000623
1.0006652
1.0007099
1.0007579
1.0008097
1.000866
1.0009279
1.0009956
1.0010692
1.0011482
1.0012311
1.0013146
1.001395
1.0014622
1.0015095
1.0015146
1.0014846
1.0013651
1.0012089
1.0009254
1.0006746
1.0002983
1.0000742
0.99975252
1.0000951
1.0001056
1.0001163
1.0001281
1.0001411
1.0001552
1.0001706
1.0001874
1.0002055
1.0002251
1.0002463
1.000269
1.0002933
1.0003192
1.0003467
1.0003758
1.0004064
1.0004386
1.0004722
1.0005073
1.0005439
1.0005821
1.0006222
1.0006645
1.0007095
1.0007579
1.0008102
1.0008674
1.0009304
1.0009996
1.0010753
1.001157
1.0012434
1.0013313
1.0014175
1.0014915
1.0015468
1.0015593
1.0015379
1.0014189
1.001265
1.0009631
1.0007103
1.0002923
1.0000707
0.9996862
1.0000951
1.0001055
1.0001162
1.000128
1.000141
1.0001551
1.0001705
1.0001872
1.0002054
1.0002249
1.000246
1.0002687
1.000293
1.0003188
1.0003463
1.0003753
1.0004059
1.000438
1.0004715
1.0005066
1.0005431
1.0005814
1.0006215
1.000664
1.0007092
1.0007578
1.0008107
1.0008685
1.0009324
1.0010028
1.0010802
1.0011641
1.0012533
1.0013449
1.0014358
1.0015156
1.0015776
1.0015963
1.0015821
1.0014632
1.0013119
1.0009934
1.0007405
1.0002804
1.0000653
0.9996148
1.0000951
1.0001055
1.0001162
1.0001279
1.0001409
1.000155
1.0001704
1.0001871
1.0002052
1.0002248
1.0002458
1.0002685
1.0002927
1.0003185
1.0003459
1.0003748
1.0004054
1.0004374
1.0004709
1.0005059
1.0005425
1.0005807
1.0006209
1.0006634
1.0007088
1.0007577
1.000811
1.0008693
1.0009339
1.0010054
1.0010841
1.0011697
1.0012613
1.0013558
1.0014508
1.0015354
1.0016028
1.0016266
1.0016189
1.0015005
1.0013524
1.0010204
1.000769
1.0002706
1.0000418
0.9995402
1.000095
1.0001054
1.0001161
1.0001279
1.0001408
1.0001549
1.0001703
1.000187
1.000205
1.0002246
1.0002456
1.0002682
1.0002924
1.0003181
1.0003455
1.0003744
1.0004049
1.0004369
1.0004703
1.0005053
1.0005418
1.0005801
1.0006203
1.000663
1.0007085
1.0007577
1.0008112
1.00087
1.0009353
1.0010076
1.0010874
1.0011745
1.0012681
1.001365
1.0014629
1.0015512
1.0016233
1.0016517
1.0016503
1.0015333
1.0013896
1.0010471
1.0007997
1.0002603
1.0000149
0.99944807
1.000095
1.0001054
1.0001161
1.0001278
1.0001407
1.0001548
1.0001702
1.0001869
1.0002049
1.0002244
1.0002454
1.000268
1.0002921
1.0003179
1.0003452
1.0003741
1.0004045
1.0004364
1.0004698
1.0005048
1.0005413
1.0005796
1.0006198
1.0006625
1.0007082
1.0007575
1.0008114
1.0008706
1.0009363
1.0010092
1.0010899
1.0011781
1.0012731
1.0013719
1.0014729
1.0015647
1.0016404
1.0016719
1.0016741
1.001556
1.0014132
1.0010578
1.0008142
1.000236
0.99999605
0.99936434
1.0000949
1.0001053
1.000116
1.0001277
1.0001407
1.0001547
1.0001701
1.0001867
1.0002048
1.0002242
1.0002452
1.0002677
1.0002918
1.0003175
1.0003448
1.0003736
1.000404
1.0004359
1.0004693
1.0005042
1.0005408
1.000579
1.0006194
1.0006622
1.000708
1.0007575
1.0008115
1.0008711
1.0009374
1.0010111
1.0010926
1.001182
1.0012785
1.0013798
1.0014833
1.0015769
1.0016543
1.0016874
1.0016907
1.0015691
1.0014239
1.0010534
1.0008138
1.0002003
1.0000059
0.9993465
0.99876351
0.99869728
0.9986272
0.99858377
0.9985519
0.99852835
0.99852038
0.99854801
0.99864234
0.9988011
0.99888657
0.99889087
0.99886064
0.99873036
0.99826742
0.99778323
0.9976087
0.99757577
0.99759456
0.99761516
0.9976246
0.99762708
0.99761643
0.99762028
0.99764384
0.9976793
0.99771663
0.99775148
0.99778444
0.99781397
0.99783666
0.99785394
0.9978692
0.99788359
0.99789362
0.9979006
0.99871543
0.99865188
0.99858144
0.9985371
0.99850426
0.99847941
0.99846935
0.99849219
0.99858166
0.99874662
0.99884664
0.99886076
0.99884723
0.99878211
0.9984542
0.99797257
0.9977697
0.99772461
0.99772513
0.9977325
0.99772909
0.99771922
0.99770503
0.99769753
0.99769261
0.9976883
0.99768522
0.9976857
0.99768769
0.99769075
0.99769865
0.99770799
0.99771766
0.99772693
0.99773408
0.9977391
0.9986774
0.99861447
0.9985434
0.99849838
0.99846512
0.99844006
0.99843012
0.99845386
0.99854463
0.99871061
0.99881015
0.99882523
0.99881363
0.99876019
0.99845016
0.99795649
0.99772677
0.99767823
0.9976804
0.99769398
0.99769734
0.99769326
0.99768504
0.99768092
0.99768088
0.99768325
0.9976872
0.9976929
0.99769995
0.99770711
0.99771385
0.99771953
0.99772366
0.99772681
0.99772903
0.99773008
0.99864401
0.99858151
0.99850961
0.99846397
0.99843026
0.99840494
0.99839511
0.99841933
0.9985114
0.99867985
0.99878279
0.99880125
0.99879468
0.99875781
0.99850286
0.99800916
0.99774917
0.99769286
0.99769309
0.9977045
0.99770759
0.99770376
0.99769523
0.99768639
0.99767862
0.99767305
0.99767027
0.99766972
0.9976707
0.99767288
0.99767607
0.99767958
0.99768298
0.99768632
0.99768988
0.99769185
0.99861481
0.99855244
0.99847968
0.9984333
0.99839907
0.99837339
0.99836335
0.99838771
0.9984803
0.99865072
0.99875708
0.99877718
0.99877306
0.99874858
0.99853678
0.99804446
0.99774734
0.99767973
0.99767709
0.99769067
0.99769633
0.99769497
0.99768951
0.99768363
0.99767792
0.99767308
0.99766919
0.99766656
0.99766517
0.99766472
0.99766493
0.99766568
0.99766705
0.99766882
0.99767116
0.99767302
0.9985886
0.99852614
0.99845237
0.99840521
0.99837046
0.99834447
0.99833421
0.99835861
0.99845191
0.99862449
0.99873438
0.99875636
0.99875462
0.99873983
0.99857308
0.998093
0.99776009
0.99767866
0.99767217
0.99768604
0.9976919
0.99769072
0.99768535
0.99767857
0.99767193
0.99766619
0.99766162
0.9976582
0.99765583
0.99765435
0.99765363
0.99765351
0.99765396
0.99765519
0.99765752
0.99765935
0.99856466
0.99850201
0.99842706
0.99837908
0.99834378
0.9983175
0.99830698
0.99833134
0.99842511
0.99859958
0.99871294
0.99873617
0.99873596
0.9987266
0.99859706
0.99813836
0.99776761
0.99766805
0.99765738
0.99767185
0.99767895
0.99767852
0.99767395
0.99766808
0.99766232
0.9976571
0.99765271
0.99764921
0.99764662
0.99764487
0.9976438
0.99764333
0.9976435
0.99764445
0.99764645
0.99764804
0.99854228
0.99847932
0.99840314
0.99835433
0.9983185
0.99829187
0.99828113
0.99830558
0.99839968
0.99857593
0.99869262
0.9987169
0.99871818
0.99871354
0.99861673
0.99819028
0.99778166
0.99765948
0.99764397
0.99765867
0.9976669
0.99766716
0.9976627
0.99765678
0.99765114
0.99764609
0.99764182
0.99763841
0.9976358
0.99763393
0.99763271
0.99763204
0.99763182
0.9976325
0.99763398
0.99763516
0.9985206
0.99845724
0.99837979
0.99833012
0.99829377
0.99826673
0.99825576
0.99828019
0.99837465
0.99855277
0.99867259
0.99869809
0.99869981
0.99869991
0.99862869
0.99824286
0.99780053
0.99765063
0.99762904
0.99764291
0.99765274
0.99765391
0.99764977
0.99764396
0.99763838
0.99763377
0.9976297
0.99762645
0.99762377
0.99762187
0.99762031
0.99761953
0.99761891
0.9976192
0.99761986
0.99762068
0.99849934
0.9984355
0.99835674
0.99830622
0.99826932
0.99824186
0.99823069
0.99825505
0.99834994
0.99852989
0.99865283
0.9986795
0.99868115
0.99868464
0.99863304
0.99829146
0.9978232
0.99764263
0.99761397
0.99762683
0.99763846
0.99764081
0.9976371
0.99763127
0.99762553
0.99762086
0.99761692
0.99761379
0.99761104
0.99760918
0.99760741
0.99760646
0.9976055
0.99760532
0.99760541
0.99760595
0.99847817
0.99841378
0.99833369
0.99828229
0.99824484
0.99821697
0.9982056
0.99822987
0.99832538
0.99850696
0.99863338
0.99866071
0.99866259
0.99866848
0.99863067
0.99833602
0.99784949
0.99763507
0.99759818
0.99760957
0.99762309
0.99762692
0.99762396
0.99761823
0.99761236
0.99760751
0.99760352
0.99760043
0.99759764
0.99759568
0.99759382
0.9975926
0.99759141
0.99759069
0.99759018
0.99759051
0.99845689
0.9983919
0.99831046
0.99825818
0.99822016
0.99819189
0.9981803
0.99820459
0.99830066
0.99848397
0.99861381
0.99864156
0.99864409
0.99865123
0.9986253
0.9983763
0.99788129
0.99762918
0.99758244
0.99759157
0.99760719
0.99761266
0.99761083
0.99760529
0.99759932
0.99759423
0.99759002
0.99758682
0.99758392
0.99758181
0.99757982
0.99757836
0.9975769
0.99757571
0.99757464
0.99757475
0.9984353
0.99836967
0.99828686
0.99823368
0.99819508
0.99816642
0.99815461
0.99817894
0.99827555
0.99846086
0.99859382
0.99862246
0.99862509
0.99863289
0.99861766
0.99841238
0.99791734
0.99762528
0.99756688
0.99757278
0.99759059
0.997598
0.99759704
0.99759198
0.99758601
0.99758079
0.9975763
0.99757289
0.99756981
0.99756753
0.99756536
0.99756369
0.99756197
0.99756041
0.99755879
0.99755871
0.99841327
0.99834698
0.99826278
0.99820869
0.99816951
0.99814046
0.99812845
0.99815286
0.9982501
0.99843739
0.99857354
0.99860302
0.99860573
0.99861399
0.99860703
0.99844319
0.99795725
0.99762394
0.99755106
0.99755278
0.99757277
0.99758241
0.99758269
0.99757834
0.99757248
0.99756729
0.99756253
0.99755897
0.99755566
0.99755324
0.99755088
0.99754908
0.99754711
0.99754527
0.9975432
0.99754294
0.99839057
0.99832358
0.99823798
0.99818298
0.99814322
0.99811378
0.99810158
0.99812611
0.99822403
0.99841338
0.99855269
0.99858305
0.99858567
0.99859438
0.99859304
0.99846582
0.99800087
0.99762685
0.9975356
0.99753242
0.99755413
0.99756589
0.99756777
0.99756416
0.99755842
0.99755328
0.9975483
0.9975446
0.99754106
0.99753853
0.99753595
0.99753403
0.99753182
0.99752973
0.99752726
0.99752685
0.99836711
0.99829941
0.99821239
0.99815647
0.99811612
0.99808629
0.99807392
0.9980986
0.9981973
0.99838879
0.99853121
0.99856245
0.99856495
0.99857412
0.99857692
0.99848172
0.99804871
0.99763514
0.99752038
0.99751187
0.99753465
0.99754877
0.99755248
0.99754978
0.99754435
0.99753922
0.99753412
0.99753029
0.99752656
0.99752391
0.99752116
0.99751912
0.99751672
0.9975144
0.99751157