/*--------------------------------*- C++ -*----------------------------------*\
| =========                 |                                                 |
| \\      /  F ield         | OpenFOAM: The Open Source CFD Toolbox           |
|  \\    /   O peration     | Version:  v2006                                 |
|   \\  /    A nd           | Website:  www.openfoam.com                      |
|    \\/     M anipulation  |                                                 |
\*---------------------------------------------------------------------------*/
FoamFile
{
    version     2.0;
    format      ascii;
    class       volScalarField;
    location    "6000";
    object      T;
}
// * * * * * * * * * * * * * * * * * * * * * * * * * * * * * * * * * * * * * //

dimensions      [0 0 0 1 0 0 0];


internalField   nonuniform List<scalar> 
21256
(
1.0000095
1.0000109
1.0000115
1.0000117
1.0000117
1.0000117
1.0000116
1.0000116
1.0000116
1.0000116
1.0000115
1.0000115
1.0000115
1.0000115
1.0000115
1.0000115
1.0000116
1.0000116
1.0000116
1.0000115
1.0000115
1.0000115
1.0000115
1.0000116
1.0000116
1.0000116
1.0000117
1.0000116
1.0000116
1.0000115
1.0000116
1.0000116
1.0000116
1.0000116
1.0000117
1.0000117
1.000009
1.0000102
1.0000107
1.0000108
1.0000108
1.0000108
1.0000108
1.0000108
1.0000107
1.0000107
1.0000107
1.0000106
1.0000106
1.0000106
1.0000106
1.0000107
1.0000107
1.0000108
1.0000107
1.0000107
1.0000106
1.0000107
1.0000107
1.0000107
1.0000108
1.0000108
1.0000108
1.0000108
1.0000107
1.0000107
1.0000107
1.0000108
1.0000108
1.0000108
1.0000108
1.0000108
1.0000087
1.0000097
1.0000101
1.0000102
1.0000101
1.0000101
1.0000101
1.0000101
1.00001
1.00001
1.00001
1.0000099
1.0000099
1.0000099
1.0000099
1.0000099
1.00001
1.00001
1.00001
1.00001
1.0000099
1.00001
1.00001
1.00001
1.0000101
1.0000101
1.0000102
1.0000102
1.0000101
1.00001
1.00001
1.0000101
1.0000101
1.0000101
1.0000101
1.0000101
1.0000084
1.0000093
1.0000096
1.0000097
1.0000096
1.0000096
1.0000096
1.0000096
1.0000095
1.0000095
1.0000095
1.0000094
1.0000094
1.0000094
1.0000094
1.0000094
1.0000095
1.0000095
1.0000095
1.0000094
1.0000094
1.0000094
1.0000095
1.0000095
1.0000096
1.0000096
1.0000097
1.0000097
1.0000096
1.0000095
1.0000095
1.0000096
1.0000096
1.0000096
1.0000096
1.0000096
1.0000083
1.000009
1.0000092
1.0000092
1.0000092
1.0000092
1.0000092
1.0000091
1.0000091
1.0000091
1.000009
1.000009
1.000009
1.000009
1.000009
1.000009
1.000009
1.0000091
1.000009
1.000009
1.000009
1.000009
1.000009
1.0000091
1.0000091
1.0000092
1.0000092
1.0000093
1.0000093
1.0000091
1.0000091
1.0000092
1.0000092
1.0000093
1.0000092
1.0000092
1.0000079
1.0000086
1.0000086
1.0000086
1.0000085
1.0000085
1.0000085
1.0000084
1.0000084
1.0000084
1.0000084
1.0000083
1.0000083
1.0000083
1.0000083
1.0000083
1.0000083
1.0000084
1.0000084
1.0000084
1.0000083
1.0000083
1.0000083
1.0000084
1.0000085
1.0000085
1.0000085
1.0000086
1.0000087
1.0000085
1.0000084
1.0000085
1.0000086
1.0000087
1.0000086
1.0000086
1.0000077
1.0000086
1.0000083
1.0000082
1.0000083
1.0000081
1.0000083
1.0000081
1.0000082
1.000008
1.000008
1.000008
1.000008
1.000008
1.000008
1.0000079
1.0000079
1.0000081
1.0000081
1.000008
1.000008
1.000008
1.0000079
1.0000081
1.0000081
1.0000081
1.0000081
1.0000083
1.0000083
1.0000085
1.0000081
1.0000081
1.0000085
1.0000087
1.0000082
1.0000082
1.0000096
1.0000103
1.0000098
1.0000102
1.0000097
1.0000102
1.0000099
1.00001
1.0000099
1.0000099
1.00001
1.00001
1.00001
1.00001
1.00001
1.0000097
1.0000097
1.0000095
1.0000099
1.0000098
1.0000099
1.0000099
1.0000098
1.0000098
1.0000099
1.00001
1.0000101
1.0000101
1.00001
1.0000102
1.0000099
1.0000098
1.0000098
1.0000104
1.0000099
1.0000099
1.0000068
1.000006
1.0000068
1.0000061
1.0000064
1.000006
1.0000059
1.000006
1.0000059
1.0000059
1.000006
1.0000059
1.000006
1.000006
1.000006
1.0000063
1.000006
1.0000061
1.0000063
1.0000071
1.0000073
1.0000075
1.0000076
1.0000074
1.0000072
1.0000071
1.0000068
1.0000067
1.000007
1.0000071
1.0000078
1.0000075
1.000007
1.0000061
1.0000074
1.0000074
1.0000343
1.0000343
1.0000343
1.0000343
1.0000343
1.0000343
1.0000343
1.0000343
1.0000343
1.0000343
1.0000343
1.0000343
1.0000343
1.0000343
1.0000343
1.0000343
1.0000343
1.0000343
1.0000343
1.0000344
1.0000344
1.0000344
1.0000344
1.0000344
1.0000345
1.0000345
1.0000345
1.0000345
1.0000346
1.0000346
1.0000345
1.0000343
1.0000337
1.0000325
1.00003
1.0000255
1.0000297
1.0000297
1.0000297
1.0000297
1.0000297
1.0000297
1.0000297
1.0000297
1.0000297
1.0000296
1.0000296
1.0000296
1.0000297
1.0000297
1.0000297
1.0000296
1.0000296
1.0000297
1.0000297
1.0000297
1.0000298
1.0000298
1.0000298
1.0000298
1.0000298
1.0000298
1.0000299
1.0000299
1.0000299
1.0000299
1.0000299
1.0000297
1.0000292
1.0000281
1.000026
1.0000221
1.000026
1.000026
1.000026
1.000026
1.000026
1.000026
1.000026
1.0000259
1.0000259
1.0000259
1.0000258
1.0000258
1.0000259
1.0000259
1.0000259
1.0000258
1.0000258
1.0000259
1.0000259
1.0000259
1.000026
1.000026
1.000026
1.000026
1.000026
1.000026
1.000026
1.0000261
1.0000261
1.0000261
1.0000261
1.0000259
1.0000255
1.0000246
1.0000227
1.0000193
1.0000228
1.0000228
1.0000228
1.0000228
1.0000228
1.0000228
1.0000227
1.0000227
1.0000227
1.0000226
1.0000226
1.0000226
1.0000226
1.0000226
1.0000226
1.0000226
1.0000226
1.0000226
1.0000227
1.0000227
1.0000227
1.0000227
1.0000227
1.0000227
1.0000227
1.0000228
1.0000228
1.0000228
1.0000228
1.0000229
1.0000229
1.0000228
1.0000224
1.0000216
1.00002
1.000017
1.0000201
1.0000201
1.0000201
1.0000201
1.0000201
1.00002
1.00002
1.00002
1.0000199
1.0000199
1.0000199
1.0000199
1.0000199
1.0000199
1.0000199
1.0000199
1.0000199
1.0000199
1.00002
1.00002
1.00002
1.00002
1.00002
1.00002
1.00002
1.00002
1.0000201
1.0000201
1.0000201
1.0000201
1.0000202
1.0000201
1.0000198
1.0000192
1.0000177
1.0000151
1.0000178
1.0000178
1.0000178
1.0000178
1.0000178
1.0000177
1.0000177
1.0000177
1.0000176
1.0000176
1.0000176
1.0000176
1.0000176
1.0000176
1.0000176
1.0000176
1.0000176
1.0000176
1.0000177
1.0000177
1.0000177
1.0000177
1.0000176
1.0000177
1.0000177
1.0000177
1.0000177
1.0000178
1.0000178
1.0000178
1.0000178
1.0000178
1.0000176
1.000017
1.0000158
1.0000135
1.0000158
1.0000158
1.0000158
1.0000158
1.0000158
1.0000158
1.0000157
1.0000157
1.0000157
1.0000157
1.0000157
1.0000157
1.0000157
1.0000157
1.0000156
1.0000156
1.0000156
1.0000157
1.0000157
1.0000157
1.0000157
1.0000157
1.0000157
1.0000157
1.0000157
1.0000157
1.0000158
1.0000158
1.0000158
1.0000158
1.0000159
1.0000159
1.0000157
1.0000153
1.0000142
1.0000121
1.0000142
1.0000142
1.0000141
1.0000141
1.0000141
1.0000141
1.0000141
1.000014
1.0000141
1.0000141
1.0000141
1.000014
1.000014
1.000014
1.000014
1.000014
1.000014
1.000014
1.0000141
1.0000141
1.000014
1.000014
1.000014
1.000014
1.000014
1.000014
1.0000141
1.0000141
1.0000141
1.0000141
1.0000142
1.0000142
1.0000141
1.0000137
1.0000129
1.000011
1.0000128
1.0000127
1.0000127
1.0000127
1.0000127
1.0000127
1.0000126
1.0000126
1.0000127
1.0000127
1.0000127
1.0000127
1.0000126
1.0000126
1.0000126
1.0000126
1.0000126
1.0000126
1.0000127
1.0000127
1.0000126
1.0000126
1.0000126
1.0000126
1.0000126
1.0000126
1.0000127
1.0000127
1.0000127
1.0000127
1.0000128
1.0000128
1.0000127
1.0000125
1.0000117
1.0000101
1.0000288
1.0000317
1.0000348
1.0000381
1.0000418
1.0000457
1.00005
1.0000546
1.0000597
1.000065
1.0000709
1.0000772
1.000084
1.0000912
1.0000989
1.0001068
1.000115
1.0001235
1.000132
1.0001405
1.0001487
1.0001565
1.0001636
1.0001696
1.0001743
1.0001775
1.0001781
1.0001765
1.0001721
1.0001648
1.0001543
1.0001403
1.0001259
1.0001054
1.0000833
1.0000594
1.0000347
1.000008
0.9999808
0.99995435
0.99992768
0.99990088
0.99987432
0.99984799
0.99982263
0.99979831
1.0000335
1.0000368
1.0000402
1.0000439
1.000048
1.0000524
1.0000572
1.0000625
1.0000683
1.0000744
1.0000811
1.0000882
1.0000957
1.0001036
1.0001121
1.0001209
1.0001301
1.0001395
1.000149
1.0001585
1.0001676
1.0001762
1.0001839
1.0001904
1.0001951
1.0001977
1.0001976
1.0001946
1.0001883
1.0001782
1.0001643
1.0001462
1.0001249
1.0000999
1.0000716
1.0000407
1.0000076
0.99997288
0.99993713
0.99990093
0.99986492
0.99982946
0.9997949
0.99976114
0.99972911
0.9996965
1.0000365
1.0000401
1.0000439
1.0000481
1.0000526
1.0000575
1.0000629
1.0000687
1.000075
1.0000819
1.0000892
1.000097
1.0001054
1.0001143
1.0001237
1.0001336
1.0001439
1.0001545
1.0001652
1.000176
1.0001864
1.0001963
1.0002053
1.0002129
1.0002187
1.0002221
1.0002227
1.0002199
1.0002134
1.0002026
1.0001875
1.0001679
1.0001437
1.0001154
1.0000834
1.0000479
1.0000099
0.99996968
0.99992792
0.99988517
0.99984207
0.99979913
0.99975687
0.99971538
0.99967531
0.99963684
1.000038
1.0000417
1.0000458
1.0000502
1.0000551
1.0000603
1.0000661
1.0000723
1.0000791
1.0000864
1.0000943
1.0001028
1.0001118
1.0001215
1.0001317
1.0001425
1.0001538
1.0001654
1.0001772
1.0001891
1.0002008
1.000212
1.0002222
1.0002312
1.0002383
1.000243
1.0002448
1.0002432
1.0002376
1.0002277
1.0002131
1.0001939
1.0001698
1.0001413
1.0001086
1.0000723
1.0000329
0.99999119
0.99994757
0.99990268
0.99985715
0.99981151
0.99976631
0.99972172
0.99967832
0.99963638
1.0000386
1.0000425
1.0000467
1.0000513
1.0000564
1.0000619
1.0000678
1.0000744
1.0000814
1.0000891
1.0000973
1.0001062
1.0001158
1.000126
1.0001368
1.0001482
1.0001602
1.0001726
1.0001853
1.0001981
1.0002107
1.0002229
1.0002342
1.0002443
1.0002526
1.0002585
1.0002615
1.0002611
1.0002567
1.0002479
1.0002344
1.0002161
1.000193
1.0001653
1.0001333
1.0000976
1.0000588
1.0000174
0.99997404
0.99992932
0.99988387
0.99983821
0.99979288
0.99974811
0.99970442
0.9996621
1.0000389
1.0000429
1.0000472
1.0000519
1.0000571
1.0000627
1.0000688
1.0000755
1.0000828
1.0000906
1.0000991
1.0001083
1.0001182
1.0001287
1.0001399
1.0001518
1.0001642
1.0001771
1.0001904
1.0002038
1.0002172
1.0002301
1.0002422
1.0002531
1.0002622
1.000269
1.000273
1.0002735
1.00027
1.0002621
1.0002496
1.0002322
1.0002099
1.000183
1.0001518
1.0001167
1.0000785
1.0000377
0.99999491
0.99995069
0.99990568
0.99986042
0.99981545
0.99977103
0.99972764
0.99968549
1.0000391
1.0000431
1.0000474
1.0000522
1.0000574
1.0000631
1.0000694
1.0000762
1.0000835
1.0000915
1.0001002
1.0001096
1.0001196
1.0001304
1.0001418
1.000154
1.0001667
1.00018
1.0001936
1.0002075
1.0002212
1.0002346
1.0002473
1.0002587
1.0002685
1.0002759
1.0002804
1.0002816
1.0002788
1.0002715
1.0002596
1.0002427
1.000221
1.0001946
1.0001639
1.0001293
1.0000914
1.0000509
1.0000084
0.99996438
0.99991959
0.99987454
0.99982972
0.99978546
0.9997422
0.99970012
1.0000391
1.0000431
1.0000475
1.0000523
1.0000576
1.0000634
1.0000697
1.0000765
1.000084
1.0000921
1.0001008
1.0001103
1.0001205
1.0001314
1.000143
1.0001553
1.0001683
1.0001817
1.0001956
1.0002097
1.0002238
1.0002375
1.0002505
1.0002623
1.0002724
1.0002802
1.0002852
1.0002867
1.0002844
1.0002775
1.0002659
1.0002495
1.0002281
1.000202
1.0001715
1.0001371
1.0000994
1.000059
1.0000166
0.99997266
0.99992792
0.99988289
0.99983808
0.99979382
0.99975057
0.99970841
1.0000391
1.0000431
1.0000475
1.0000524
1.0000577
1.0000635
1.0000698
1.0000767
1.0000842
1.0000924
1.0001012
1.0001107
1.000121
1.000132
1.0001437
1.0001561
1.0001692
1.0001828
1.0001968
1.0002111
1.0002253
1.0002392
1.0002524
1.0002645
1.0002748
1.0002829
1.0002881
1.00029
1.0002879
1.0002814
1.0002701
1.000254
1.0002329
1.000207
1.0001766
1.0001424
1.0001047
1.0000644
1.0000219
0.99997799
0.99993322
0.99988814
0.99984327
0.99979896
0.99975563
0.99971336
1.000039
1.0000431
1.0000475
1.0000524
1.0000577
1.0000635
1.0000699
1.0000768
1.0000844
1.0000925
1.0001014
1.000111
1.0001213
1.0001323
1.0001441
1.0001566
1.0001697
1.0001834
1.0001975
1.0002119
1.0002262
1.0002403
1.0002536
1.0002658
1.0002763
1.0002846
1.0002901
1.0002922
1.0002904
1.0002842
1.0002732
1.0002573
1.0002365
1.0002108
1.0001806
1.0001465
1.0001089
1.0000686
1.0000261
0.99998215
0.99993731
0.99989215
0.99984719
0.99980277
0.99975933
0.99971695
1.000039
1.0000431
1.0000475
1.0000524
1.0000577
1.0000635
1.0000699
1.0000768
1.0000844
1.0000926
1.0001015
1.0001111
1.0001214
1.0001325
1.0001443
1.0001568
1.00017
1.0001837
1.0001979
1.0002123
1.0002267
1.0002409
1.0002543
1.0002666
1.0002773
1.0002858
1.0002915
1.000294
1.0002924
1.0002865
1.0002759
1.0002604
1.0002399
1.0002145
1.0001846
1.0001506
1.0001132
1.0000729
1.0000304
0.99998636
0.99994143
0.99989616
0.99985107
0.99980651
0.99976292
0.99972037
1.000039
1.0000431
1.0000475
1.0000523
1.0000577
1.0000635
1.0000699
1.0000768
1.0000844
1.0000926
1.0001015
1.0001111
1.0001215
1.0001326
1.0001444
1.0001569
1.0001701
1.0001839
1.0001981
1.0002125
1.000227
1.0002412
1.0002547
1.0002672
1.000278
1.0002868
1.0002928
1.0002955
1.0002944
1.000289
1.0002789
1.0002638
1.0002438
1.0002188
1.0001893
1.0001556
1.0001183
1.0000781
1.0000356
0.99999156
0.99994652
0.9999011
0.99985583
0.99981108
0.9997673
0.99972459
1.000039
1.0000431
1.0000475
1.0000523
1.0000576
1.0000635
1.0000698
1.0000768
1.0000843
1.0000926
1.0001015
1.0001111
1.0001214
1.0001325
1.0001444
1.0001569
1.0001701
1.0001838
1.0001981
1.0002125
1.000227
1.0002413
1.0002549
1.0002675
1.0002786
1.0002876
1.000294
1.0002973
1.0002967
1.0002919
1.0002825
1.0002682
1.0002488
1.0002245
1.0001955
1.0001622
1.0001253
1.0000852
1.0000427
0.99999859
0.9999534
0.99990778
0.99986225
0.99981724
0.99977315
0.99973013
1.000039
1.000043
1.0000475
1.0000523
1.0000576
1.0000634
1.0000698
1.0000767
1.0000843
1.0000925
1.0001014
1.000111
1.0001213
1.0001324
1.0001442
1.0001568
1.0001699
1.0001837
1.0001979
1.0002124
1.0002269
1.0002413
1.000255
1.0002678
1.0002792
1.0002886
1.0002955
1.0002993
1.0002996
1.0002957
1.0002872
1.0002739
1.0002555
1.0002321
1.0002039
1.0001713
1.0001347
1.0000949
1.0000525
1.0000083
0.99996288
0.99991697
0.99987111
0.99982574
0.99978126
0.99973795
1.0000389
1.000043
1.0000474
1.0000523
1.0000576
1.0000634
1.0000698
1.0000767
1.0000842
1.0000924
1.0001013
1.0001109
1.0001212
1.0001323
1.0001441
1.0001566
1.0001697
1.0001835
1.0001977
1.0002121
1.0002267
1.0002411
1.000255
1.000268
1.0002798
1.0002896
1.0002972
1.0003019
1.0003031
1.0003004
1.0002933
1.0002813
1.0002644
1.0002423
1.0002152
1.0001834
1.0001475
1.000108
1.0000658
1.0000214
0.99997576
0.99992947
0.99988311
0.99983721
0.99979213
0.99974826
1.0000389
1.000043
1.0000474
1.0000522
1.0000576
1.0000634
1.0000697
1.0000766
1.0000842
1.0000924
1.0001012
1.0001108
1.0001211
1.0001321
1.0001439
1.0001563
1.0001694
1.0001832
1.0001973
1.0002118
1.0002264
1.0002409
1.000255
1.0002683
1.0002804
1.0002909
1.0002993
1.000305
1.0003076
1.0003064
1.000301
1.0002909
1.0002758
1.0002554
1.0002299
1.0001994
1.0001643
1.0001254
1.0000833
1.0000388
0.99999281
0.99994598
0.99989896
0.99985239
0.99980657
0.99976212
1.0000389
1.000043
1.0000474
1.0000522
1.0000575
1.0000633
1.0000697
1.0000766
1.0000841
1.0000923
1.0001011
1.0001107
1.0001209
1.0001319
1.0001436
1.000156
1.0001691
1.0001828
1.0001969
1.0002114
1.0002261
1.0002407
1.0002549
1.0002686
1.0002812
1.0002924
1.0003018
1.0003088
1.000313
1.0003137
1.0003105
1.0003027
1.0002899
1.0002719
1.0002484
1.0002196
1.0001858
1.0001476
1.0001057
1.0000611
1.0000146
0.99996696
0.99991901
0.99987144
0.9998245
0.99977907
1.0000389
1.0000429
1.0000473
1.0000522
1.0000575
1.0000633
1.0000696
1.0000765
1.000084
1.0000922
1.000101
1.0001105
1.0001207
1.0001317
1.0001434
1.0001557
1.0001688
1.0001824
1.0001965
1.000211
1.0002256
1.0002403
1.0002548
1.0002688
1.000282
1.0002941
1.0003046
1.0003131
1.0003192
1.0003222
1.0003216
1.0003167
1.0003069
1.0002917
1.0002708
1.0002442
1.0002121
1.0001749
1.0001334
1.0000885
1.0000413
0.99999267
0.99994349
0.99989466
0.99984637
0.99979985
1.0000388
1.0000429
1.0000473
1.0000521
1.0000574
1.0000632
1.0000695
1.0000764
1.0000839
1.000092
1.0001008
1.0001103
1.0001205
1.0001314
1.000143
1.0001554
1.0001683
1.0001819
1.0001959
1.0002104
1.0002251
1.0002399
1.0002547
1.000269
1.0002829
1.0002958
1.0003076
1.0003178
1.000326
1.0003316
1.0003339
1.0003324
1.0003261
1.0003145
1.0002969
1.0002731
1.0002431
1.0002072
1.0001662
1.000121
1.0000728
1.0000228
0.99997188
0.99992126
0.99987104
0.99982286
1.0000388
1.0000428
1.0000472
1.000052
1.0000573
1.0000631
1.0000694
1.0000763
1.0000838
1.0000919
1.0001007
1.0001101
1.0001203
1.0001311
1.0001427
1.0001549
1.0001678
1.0001813
1.0001954
1.0002098
1.0002245
1.0002395
1.0002544
1.0002692
1.0002837
1.0002976
1.0003106
1.0003226
1.000333
1.0003414
1.0003471
1.0003492
1.000347
1.0003395
1.0003259
1.0003056
1.0002782
1.000244
1.0002036
1.0001581
1.0001086
1.0000567
1.0000036
0.99995071
0.99989817
0.99984815
1.0000388
1.0000428
1.0000472
1.000052
1.0000573
1.000063
1.0000693
1.0000762
1.0000836
1.0000917
1.0001005
1.0001099
1.00012
1.0001308
1.0001423
1.0001545
1.0001673
1.0001807
1.0001947
1.0002091
1.0002239
1.0002389
1.0002541
1.0002693
1.0002843
1.0002991
1.0003135
1.0003272
1.00034
1.0003512
1.0003603
1.0003665
1.0003687
1.0003659
1.0003568
1.0003406
1.0003165
1.0002844
1.0002449
1.0001988
1.0001477
1.0000933
1.0000372
0.99998127
0.99992562
0.99987298
1.0000388
1.0000428
1.0000472
1.000052
1.0000573
1.000063
1.0000693
1.0000761
1.0000835
1.0000916
1.0001003
1.0001097
1.0001197
1.0001305
1.0001419
1.000154
1.0001668
1.0001801
1.000194
1.0002084
1.0002232
1.0002383
1.0002537
1.0002692
1.0002849
1.0003005
1.0003161
1.0003315
1.0003464
1.0003605
1.000373
1.0003833
1.0003901
1.0003922
1.0003882
1.0003767
1.0003565
1.0003271
1.0002886
1.0002421
1.0001889
1.0001314
1.0000715
1.0000117
0.99995238
0.99989682
1.0000388
1.0000429
1.0000472
1.000052
1.0000573
1.000063
1.0000693
1.0000761
1.0000835
1.0000915
1.0001001
1.0001095
1.0001195
1.0001302
1.0001415
1.0001536
1.0001663
1.0001796
1.0001934
1.0002077
1.0002225
1.0002377
1.0002532
1.0002691
1.0002852
1.0003017
1.0003184
1.0003353
1.0003523
1.0003689
1.0003848
1.000399
1.0004104
1.0004176
1.0004189
1.0004125
1.0003968
1.0003706
1.0003336
1.0002865
1.0002309
1.0001695
1.0001048
1.0000401
0.99997599
0.99991665
1.0000388
1.0000428
1.0000472
1.000052
1.0000573
1.000063
1.0000692
1.000076
1.0000834
1.0000914
1.0001
1.0001093
1.0001193
1.0001299
1.0001412
1.0001532
1.0001658
1.000179
1.0001928
1.0002071
1.0002219
1.0002371
1.0002527
1.0002689
1.0002855
1.0003026
1.0003203
1.0003385
1.0003573
1.0003763
1.0003951
1.000413
1.0004288
1.000441
1.0004477
1.0004468
1.0004358
1.0004134
1.0003782
1.0003308
1.0002724
1.0002064
1.0001358
1.0000651
0.9999955
0.99993237
1.0000388
1.0000428
1.0000472
1.000052
1.0000572
1.0000629
1.0000692
1.000076
1.0000833
1.0000913
1.0000999
1.0001091
1.000119
1.0001296
1.0001409
1.0001528
1.0001653
1.0001785
1.0001922
1.0002065
1.0002212
1.0002365
1.0002523
1.0002686
1.0002856
1.0003032
1.0003217
1.0003411
1.0003615
1.0003825
1.000404
1.0004252
1.000445
1.0004619
1.0004738
1.0004783
1.0004724
1.0004542
1.0004212
1.0003738
1.0003123
1.0002412
1.0001636
1.0000858
1.0000103
0.99994293
1.0000387
1.0000428
1.0000472
1.0000519
1.0000572
1.0000629
1.0000691
1.0000759
1.0000832
1.0000912
1.0000997
1.000109
1.0001188
1.0001294
1.0001406
1.0001524
1.0001649
1.000178
1.0001917
1.0002059
1.0002206
1.0002359
1.0002518
1.0002683
1.0002856
1.0003037
1.0003229
1.0003432
1.0003649
1.0003877
1.0004114
1.0004355
1.0004588
1.00048
1.0004967
1.0005065
1.0005056
1.0004919
1.0004614
1.0004145
1.0003497
1.0002733
1.0001878
1.0001027
1.0000211
0.99994807
1.0000387
1.0000428
1.0000471
1.0000519
1.0000571
1.0000628
1.0000691
1.0000758
1.0000832
1.0000911
1.0000996
1.0001088
1.0001186
1.0001291
1.0001403
1.0001521
1.0001645
1.0001775
1.0001911
1.0002053
1.00022
1.0002354
1.0002513
1.000268
1.0002855
1.000304
1.0003237
1.0003449
1.0003676
1.0003919
1.0004175
1.000444
1.0004704
1.0004953
1.0005164
1.0005311
1.000535
1.0005258
1.0004979
1.0004519
1.0003838
1.0003027
1.000209
1.0001166
1.0000263
0.99994533
1.0000387
1.0000428
1.0000471
1.0000519
1.0000571
1.0000628
1.000069
1.0000757
1.0000831
1.000091
1.0000995
1.0001086
1.0001184
1.0001289
1.00014
1.0001518
1.0001641
1.0001771
1.0001907
1.0002048
1.0002195
1.0002349
1.0002509
1.0002676
1.0002853
1.0003042
1.0003244
1.0003461
1.0003697
1.0003952
1.0004223
1.0004509
1.0004798
1.000508
1.0005329
1.000552
1.0005603
1.0005556
1.0005304
1.0004857
1.0004146
1.00033
1.0002272
1.0001269
1.0000232
0.99993595
1.0000388
1.0000428
1.0000471
1.0000518
1.000057
1.0000627
1.0000689
1.0000757
1.000083
1.0000909
1.0000994
1.0001085
1.0001183
1.0001287
1.0001398
1.0001515
1.0001638
1.0001767
1.0001903
1.0002044
1.0002191
1.0002344
1.0002504
1.0002673
1.0002852
1.0003043
1.0003248
1.0003471
1.0003714
1.0003978
1.0004262
1.0004564
1.0004875
1.0005184
1.0005466
1.0005695
1.0005818
1.0005812
1.0005585
1.0005159
1.000442
1.000355
1.0002417
1.0001326
1.0000118
0.99992689
1.0000388
1.0000428
1.0000471
1.0000518
1.000057
1.0000627
1.0000689
1.0000756
1.0000829
1.0000907
1.0000992
1.0001083
1.0001181
1.0001285
1.0001395
1.0001512
1.0001635
1.0001764
1.0001899
1.000204
1.0002186
1.000234
1.00025
1.000267
1.000285
1.0003043
1.0003251
1.0003478
1.0003727
1.0003999
1.0004294
1.0004609
1.0004937
1.0005268
1.0005578
1.000584
1.0005998
1.0006028
1.0005826
1.0005424
1.000466
1.0003776
1.0002521
1.0001344
0.99999608
0.99992762
1.0000388
1.0000428
1.0000471
1.0000518
1.000057
1.0000627
1.0000688
1.0000755
1.0000828
1.0000907
1.0000991
1.0001082
1.0001179
1.0001283
1.0001393
1.0001509
1.0001632
1.0001761
1.0001895
1.0002036
1.0002183
1.0002336
1.0002497
1.0002667
1.0002848
1.0003043
1.0003253
1.0003484
1.0003737
1.0004015
1.0004318
1.0004644
1.0004987
1.0005336
1.0005669
1.0005959
1.0006146
1.000621
1.0006031
1.0005656
1.0004865
1.0003974
1.0002585
1.0001342
0.99998112
0.99994432
1.0000388
1.0000428
1.0000471
1.0000518
1.000057
1.0000626
1.0000688
1.0000755
1.0000827
1.0000906
1.000099
1.0001081
1.0001178
1.0001281
1.0001391
1.0001507
1.0001629
1.0001758
1.0001892
1.0002032
1.0002179
1.0002333
1.0002494
1.0002664
1.0002846
1.0003042
1.0003255
1.0003488
1.0003745
1.0004028
1.0004338
1.0004673
1.0005027
1.0005392
1.0005744
1.0006056
1.0006267
1.0006362
1.0006203
1.0005854
1.0005036
1.0004141
1.0002616
1.0001339
0.99996991
0.99997567
1.0000388
1.0000427
1.0000471
1.0000518
1.0000569
1.0000626
1.0000687
1.0000754
1.0000826
1.0000905
1.0000989
1.000108
1.0001176
1.000128
1.0001389
1.0001505
1.0001627
1.0001755
1.0001889
1.0002029
1.0002176
1.0002329
1.0002491
1.0002662
1.0002845
1.0003042
1.0003256
1.0003491
1.0003751
1.0004038
1.0004354
1.0004696
1.000506
1.0005436
1.0005804
1.0006135
1.0006367
1.0006488
1.0006348
1.0006022
1.0005178
1.000428
1.0002627
1.0001352
0.99997362
1.0000108
1.0000387
1.0000427
1.000047
1.0000517
1.0000569
1.0000625
1.0000687
1.0000754
1.0000826
1.0000904
1.0000988
1.0001078
1.0001175
1.0001278
1.0001387
1.0001503
1.0001625
1.0001753
1.0001887
1.0002027
1.0002173
1.0002327
1.0002488
1.000266
1.0002843
1.0003041
1.0003256
1.0003494
1.0003756
1.0004047
1.0004366
1.0004715
1.0005086
1.0005473
1.0005853
1.0006199
1.0006449
1.0006594
1.0006469
1.0006166
1.0005297
1.0004403
1.0002627
1.0001392
0.99997794
1.0000534
1.0000387
1.0000427
1.000047
1.0000517
1.0000569
1.0000625
1.0000686
1.0000753
1.0000825
1.0000903
1.0000987
1.0001077
1.0001174
1.0001277
1.0001386
1.0001501
1.0001623
1.000175
1.0001884
1.0002024
1.0002171
1.0002324
1.0002486
1.0002658
1.0002841
1.000304
1.0003257
1.0003495
1.000376
1.0004053
1.0004377
1.000473
1.0005108
1.0005503
1.0005892
1.0006252
1.0006518
1.000668
1.0006566
1.000628
1.0005384
1.0004502
1.0002593
1.0001435
0.99998523
1.0001009
1.0000387
1.0000427
1.000047
1.0000517
1.0000568
1.0000625
1.0000686
1.0000752
1.0000825
1.0000902
1.0000986
1.0001076
1.0001173
1.0001275
1.0001384
1.0001499
1.0001621
1.0001748
1.0001882
1.0002022
1.0002168
1.0002322
1.0002484
1.0002656
1.000284
1.0003039
1.0003257
1.0003497
1.0003763
1.0004059
1.0004385
1.0004743
1.0005126
1.0005527
1.0005925
1.0006296
1.0006574
1.000675
1.0006643
1.0006371
1.0005449
1.0004584
1.0002537
1.0001487
0.9999846
1.0001578
0.99972286
0.99978925
0.99985959
0.99990342
0.99993569
0.99995964
0.99996748
0.99993885
0.99984068
0.99967333
0.9995732
0.99954882
0.99955094
0.99962291
0.99999631
1.000382
1.0005115
1.000528
1.0005197
1.0005166
1.0005244
1.0005349
1.0005442
1.000551
1.0005547
1.0005536
1.0005497
1.0005443
1.0005385
1.0005338
1.0005303
1.0005278
1.0005262
1.0005253
1.000525
1.0005258
0.99970889
0.99977259
0.99984317
0.99988771
0.99992051
0.99994513
0.99995446
0.99993016
0.99983783
0.99966835
0.99956043
0.9995344
0.99953029
0.99956945
0.99988287
1.0003267
1.0005004
1.0005296
1.0005178
1.0005094
1.0005126
1.0005221
1.0005326
1.0005408
1.000546
1.0005475
1.000546
1.0005424
1.0005379
1.0005335
1.0005295
1.0005258
1.0005225
1.0005194
1.0005162
1.0005144
0.99969758
0.9997607
0.99983188
0.99987703
0.99991027
0.99993515
0.9999444
0.99991926
0.99982576
0.99965524
0.99954833
0.9995234
0.99952033
0.9995517
0.99983868
1.0003034
1.0005079
1.0005435
1.0005325
1.0005169
1.0005133
1.0005182
1.0005265
1.000534
1.0005395
1.0005423
1.0005428
1.0005416
1.0005394
1.0005366
1.0005336
1.0005306
1.0005279
1.0005253
1.0005229
1.000522
0.99968792
0.99975063
0.99982265
0.99986852
0.99990228
0.99992759
0.99993714
0.99991206
0.99981808
0.99964636
0.99953814
0.99951323
0.99950968
0.99953271
0.99977354
1.0002532
1.0004939
1.0005428
1.000535
1.000519
1.0005132
1.0005158
1.0005225
1.0005295
1.000535
1.0005386
1.0005402
1.0005401
1.0005389
1.0005372
1.0005351
1.000533
1.0005308
1.0005286
1.0005261
1.0005253
0.9996792
0.9997418
0.99981468
0.99986134
0.99989564
0.99992138
0.9999313
0.99990651
0.99981261
0.99963982
0.99952966
0.99950511
0.99950164
0.99951777
0.99971688
1.000202
1.0004814
1.0005437
1.0005394
1.0005221
1.0005141
1.0005146
1.0005199
1.0005262
1.0005318
1.000536
1.0005386
1.0005397
1.0005398
1.0005392
1.0005381
1.0005366
1.0005349
1.0005329
1.0005304
1.0005288
0.9996713
0.999734
0.99980791
0.99985538
0.99989024
0.9999164
0.99992666
0.99990211
0.99980817
0.99963417
0.99952189
0.99949741
0.99949406
0.99950528
0.99966305
1.0001432
1.0004622
1.0005415
1.0005413
1.0005235
1.000514
1.0005133
1.0005176
1.0005234
1.000529
1.0005335
1.0005368
1.0005389
1.00054
1.0005404
1.0005402
1.0005396
1.0005386
1.0005371
1.0005346
1.0005329
0.99966401
0.99972694
0.99980202
0.99985034
0.99988576
0.99991236
0.99992295
0.99989857
0.99980448
0.99962923
0.99951468
0.9994902
0.99948724
0.99949542
0.99961766
1.000081
1.0004396
1.0005384
1.000543
1.0005247
1.0005137
1.0005119
1.0005153
1.0005208
1.0005263
1.0005311
1.0005349
1.0005377
1.0005396
1.0005407
1.0005412
1.0005413
1.000541
1.00054
1.000538
1.0005367
0.99965717
0.99972042
0.99979676
0.99984594
0.99988194
0.999909
0.99991993
0.99989577
0.99980153
0.99962495
0.99950783
0.99948317
0.9994806
0.999486
0.99957721
1.0000124
1.0004105
1.0005326
1.0005432
1.0005248
1.0005126
1.0005098
1.0005127
1.000518
1.0005234
1.0005284
1.0005326
1.0005358
1.0005382
1.0005399
1.000541
1.0005416
1.0005418
1.0005414
1.0005401
1.0005393
0.99965058
0.99971425
0.99979189
0.99984195
0.99987853
0.99990605
0.99991733
0.99989343
0.99979906
0.99962111
0.99950117
0.99947624
0.99947409
0.99947686
0.9995437
0.99994154
1.0003759
1.0005251
1.0005428
1.0005248
1.0005111
1.0005072
1.0005096
1.0005148
1.0005202
1.0005253
1.0005297
1.0005333
1.0005362
1.0005383
1.0005399
1.0005409
1.0005415
1.0005417
1.0005412
1.0005408
0.99964412
0.9997083
0.99978726
0.99983821
0.99987539
0.99990337
0.99991498
0.99989128
0.9997967
0.99961731
0.99949453
0.99946928
0.9994676
0.99946773
0.9995166
0.99987075
1.000336
1.0005156
1.0005418
1.0005247
1.0005094
1.0005043
1.0005062
1.0005112
1.0005167
1.000522
1.0005266
1.0005304
1.0005335
1.000536
1.0005379
1.0005394
1.0005405
1.0005412
1.0005413
1.0005413
0.9996377
0.99970247
0.99978277
0.99983464
0.99987242
0.99990086
0.9999128
0.99988924
0.9997944
0.99961345
0.99948787
0.9994622
0.99946121
0.99945896
0.99949551
0.99980218
1.0002904
1.0005039
1.0005399
1.0005245
1.0005076
1.0005011
1.0005023
1.0005071
1.0005128
1.0005182
1.000523
1.0005271
1.0005305
1.0005332
1.0005354
1.0005372
1.0005388
1.00054
1.0005408
1.000541
0.99963128
0.99969668
0.99977835
0.99983114
0.99986954
0.99989844
0.99991071
0.99988725
0.99979209
0.9996095
0.99948113
0.99945499
0.99945487
0.99945107
0.99947792
0.99973652
1.000239
1.0004895
1.0005371
1.0005243
1.0005058
1.0004978
1.000498
1.0005027
1.0005085
1.0005142
1.0005192
1.0005234
1.000527
1.00053
1.0005325
1.0005346
1.0005364
1.0005382
1.0005396
1.0005401
0.99962479
0.99969086
0.99977392
0.99982766
0.99986669
0.99989605
0.99990862
0.99988525
0.99978969
0.99960543
0.99947422
0.99944761
0.99944831
0.99944353
0.9994633
0.99967509
1.0001822
1.0004721
1.0005333
1.0005242
1.000504
1.0004943
1.0004937
1.000498
1.0005039
1.0005097
1.0005149
1.0005194
1.0005232
1.0005264
1.0005291
1.0005314
1.0005336
1.0005357
1.0005377
1.0005384
0.99961819
0.99968497
0.99976944
0.99982414
0.9998638
0.99989363
0.9999065
0.99988318
0.99978716
0.99960119
0.99946709
0.99944006
0.99944147
0.99943625
0.99945081
0.99961865
1.00012
1.0004507
1.0005284
1.000524
1.0005023
1.0004906
1.0004891
1.000493
1.0004988
1.0005047
1.0005102
1.0005149
1.0005189
1.0005223
1.0005253
1.0005278
1.0005302
1.0005327
1.0005352
1.0005361
0.99961143
0.99967895
0.99976485
0.99982052
0.99986082
0.99989112
0.99990429
0.999881
0.99978446
0.99959668
0.99945972
0.99943226
0.99943431
0.99942904
0.99944006
0.99956944
1.0000529
1.0004246
1.0005225
1.0005237
1.0005008
1.0004872
1.0004842
1.0004875
1.0004932
1.0004993
1.000505
1.0005099
1.0005142
1.0005178
1.000521
1.0005237
1.0005264
1.0005292
1.0005321
1.0005332
0.99960449
0.99967277
0.99976011
0.99981676
0.99985771
0.99988848
0.99990193
0.99987861
0.99978147
0.9995918
0.99945201
0.99942415
0.99942677
0.99942168
0.99942977
0.99952626
0.99998104
1.0003929
1.0005156
1.000523
1.0004993
1.0004837
1.0004791
1.0004816
1.0004872
1.0004934
1.0004992
1.0005044
1.0005089
1.0005128
1.0005161
1.0005191
1.000522
1.0005251
1.0005284
1.0005296
0.99959734
0.99966641
0.9997552
0.99981285
0.99985444
0.99988568
0.99989939
0.99987601
0.99977817
0.9995865
0.99944394
0.99941571
0.99941882
0.99941411
0.99941907
0.99949011
0.99990687
1.000355
1.0005066
1.0005215
1.0004978
1.0004801
1.0004739
1.0004753
1.0004806
1.0004869
1.0004929
1.0004983
1.0005031
1.0005071