/*--------------------------------*- C++ -*----------------------------------*\
| =========                 |                                                 |
| \\      /  F ield         | OpenFOAM: The Open Source CFD Toolbox           |
|  \\    /   O peration     | Version:  v2006                                 |
|   \\  /    A nd           | Website:  www.openfoam.com                      |
|    \\/     M anipulation  |                                                 |
\*---------------------------------------------------------------------------*/
FoamFile
{
    version     2.0;
    format      ascii;
    class       volScalarField;
    location    "6000";
    object      TMean;
}
// * * * * * * * * * * * * * * * * * * * * * * * * * * * * * * * * * * * * * //

dimensions      [0 0 0 1 0 0 0];


internalField   nonuniform List<scalar> 
21256
(
1.0000092
1.0000105
1.0000111
1.0000113
1.0000113
1.0000113
1.0000112
1.0000112
1.0000112
1.0000112
1.0000112
1.0000111
1.0000111
1.0000111
1.0000111
1.0000111
1.0000111
1.0000111
1.0000111
1.0000111
1.0000111
1.0000111
1.0000111
1.0000111
1.0000112
1.0000112
1.0000112
1.0000112
1.0000112
1.0000112
1.0000112
1.0000113
1.0000113
1.0000113
1.0000113
1.0000113
1.0000087
1.0000099
1.0000103
1.0000105
1.0000104
1.0000104
1.0000103
1.0000103
1.0000103
1.0000103
1.0000103
1.0000103
1.0000103
1.0000103
1.0000103
1.0000102
1.0000102
1.0000102
1.0000102
1.0000102
1.0000102
1.0000102
1.0000103
1.0000103
1.0000103
1.0000103
1.0000104
1.0000104
1.0000103
1.0000103
1.0000104
1.0000104
1.0000104
1.0000104
1.0000104
1.0000104
1.0000083
1.0000093
1.0000097
1.0000098
1.0000097
1.0000097
1.0000096
1.0000096
1.0000096
1.0000096
1.0000096
1.0000096
1.0000096
1.0000096
1.0000095
1.0000095
1.0000095
1.0000095
1.0000095
1.0000095
1.0000095
1.0000095
1.0000096
1.0000096
1.0000096
1.0000096
1.0000097
1.0000097
1.0000096
1.0000096
1.0000096
1.0000097
1.0000097
1.0000097
1.0000097
1.0000097
1.0000081
1.0000089
1.0000092
1.0000092
1.0000092
1.0000091
1.0000091
1.0000091
1.0000091
1.0000091
1.0000091
1.000009
1.0000091
1.000009
1.000009
1.000009
1.000009
1.000009
1.000009
1.000009
1.000009
1.000009
1.000009
1.0000091
1.0000091
1.0000091
1.0000091
1.0000092
1.0000091
1.0000091
1.0000091
1.0000092
1.0000092
1.0000092
1.0000092
1.0000092
1.0000079
1.0000086
1.0000088
1.0000088
1.0000087
1.0000087
1.0000087
1.0000087
1.0000087
1.0000087
1.0000086
1.0000086
1.0000086
1.0000086
1.0000086
1.0000086
1.0000086
1.0000086
1.0000085
1.0000085
1.0000086
1.0000086
1.0000086
1.0000086
1.0000086
1.0000087
1.0000087
1.0000088
1.0000088
1.0000086
1.0000086
1.0000088
1.0000088
1.0000088
1.0000088
1.0000088
1.0000075
1.0000081
1.0000082
1.0000081
1.0000081
1.0000081
1.000008
1.000008
1.000008
1.000008
1.000008
1.000008
1.000008
1.000008
1.0000079
1.0000079
1.0000079
1.0000079
1.0000079
1.0000079
1.0000079
1.0000079
1.000008
1.000008
1.000008
1.000008
1.000008
1.0000081
1.0000082
1.0000081
1.000008
1.0000081
1.0000082
1.0000083
1.0000081
1.0000081
1.0000073
1.0000082
1.0000079
1.0000078
1.0000079
1.0000077
1.0000078
1.0000077
1.0000077
1.0000076
1.0000077
1.0000076
1.0000076
1.0000076
1.0000076
1.0000076
1.0000076
1.0000076
1.0000075
1.0000075
1.0000076
1.0000076
1.0000076
1.0000077
1.0000077
1.0000077
1.0000077
1.0000078
1.0000079
1.0000079
1.0000077
1.0000077
1.000008
1.0000082
1.0000078
1.0000078
1.0000091
1.0000098
1.0000093
1.0000097
1.0000092
1.0000095
1.0000094
1.0000094
1.0000094
1.0000094
1.0000095
1.0000095
1.0000095
1.0000095
1.0000095
1.0000094
1.0000094
1.0000093
1.0000093
1.0000093
1.0000094
1.0000094
1.0000094
1.0000094
1.0000095
1.0000094
1.0000094
1.0000095
1.0000095
1.0000095
1.0000094
1.0000094
1.0000093
1.0000098
1.0000094
1.0000094
1.0000066
1.0000057
1.0000064
1.0000058
1.0000062
1.0000063
1.0000062
1.0000061
1.000006
1.0000059
1.0000058
1.0000057
1.0000057
1.0000057
1.0000057
1.0000059
1.000006
1.0000062
1.0000064
1.0000065
1.0000064
1.0000063
1.0000062
1.0000061
1.0000061
1.0000062
1.0000062
1.0000062
1.0000064
1.0000068
1.0000071
1.0000068
1.0000066
1.0000058
1.000007
1.000007
1.0000348
1.0000349
1.0000349
1.0000349
1.0000349
1.0000349
1.000035
1.000035
1.0000349
1.000035
1.000035
1.000035
1.000035
1.000035
1.000035
1.0000349
1.0000349
1.0000349
1.0000349
1.000035
1.000035
1.000035
1.000035
1.000035
1.0000351
1.0000351
1.0000351
1.0000351
1.0000352
1.0000352
1.0000351
1.0000349
1.0000343
1.0000332
1.0000307
1.0000261
1.0000301
1.0000301
1.0000301
1.0000301
1.0000301
1.0000302
1.0000302
1.0000301
1.0000301
1.0000301
1.0000302
1.0000302
1.0000302
1.0000301
1.0000301
1.0000301
1.0000301
1.0000301
1.0000301
1.0000301
1.0000302
1.0000302
1.0000302
1.0000302
1.0000302
1.0000302
1.0000303
1.0000303
1.0000303
1.0000303
1.0000303
1.0000301
1.0000296
1.0000286
1.0000264
1.0000225
1.0000262
1.0000262
1.0000262
1.0000262
1.0000262
1.0000262
1.0000262
1.0000262
1.0000262
1.0000262
1.0000262
1.0000262
1.0000262
1.0000262
1.0000262
1.0000261
1.0000261
1.0000261
1.0000261
1.0000261
1.0000262
1.0000262
1.0000262
1.0000262
1.0000262
1.0000262
1.0000263
1.0000263
1.0000263
1.0000263
1.0000263
1.0000262
1.0000258
1.0000249
1.000023
1.0000196
1.0000228
1.0000228
1.0000228
1.0000228
1.0000228
1.0000228
1.0000228
1.0000228
1.0000228
1.0000228
1.0000228
1.0000228
1.0000228
1.0000228
1.0000228
1.0000227
1.0000227
1.0000227
1.0000227
1.0000228
1.0000228
1.0000228
1.0000228
1.0000228
1.0000228
1.0000229
1.0000229
1.0000229
1.0000229
1.0000229
1.0000229
1.0000228
1.0000225
1.0000218
1.0000202
1.0000172
1.00002
1.00002
1.00002
1.00002
1.00002
1.00002
1.00002
1.00002
1.00002
1.00002
1.00002
1.00002
1.00002
1.00002
1.0000199
1.0000199
1.0000199
1.0000199
1.0000199
1.0000199
1.0000199
1.0000199
1.00002
1.00002
1.00002
1.00002
1.00002
1.00002
1.0000201
1.0000201
1.0000201
1.00002
1.0000198
1.0000192
1.0000178
1.0000151
1.0000176
1.0000176
1.0000176
1.0000176
1.0000176
1.0000176
1.0000176
1.0000176
1.0000176
1.0000176
1.0000176
1.0000176
1.0000176
1.0000175
1.0000175
1.0000175
1.0000175
1.0000175
1.0000175
1.0000175
1.0000175
1.0000175
1.0000175
1.0000175
1.0000176
1.0000176
1.0000176
1.0000176
1.0000176
1.0000177
1.0000177
1.0000176
1.0000175
1.0000169
1.0000158
1.0000134
1.0000156
1.0000156
1.0000156
1.0000156
1.0000156
1.0000156
1.0000155
1.0000155
1.0000155
1.0000155
1.0000155
1.0000155
1.0000155
1.0000155
1.0000155
1.0000154
1.0000154
1.0000154
1.0000154
1.0000154
1.0000155
1.0000155
1.0000155
1.0000155
1.0000155
1.0000155
1.0000155
1.0000156
1.0000156
1.0000156
1.0000156
1.0000156
1.0000155
1.0000151
1.0000141
1.000012
1.0000139
1.0000139
1.0000139
1.0000139
1.0000138
1.0000138
1.0000138
1.0000138
1.0000138
1.0000138
1.0000138
1.0000138
1.0000138
1.0000137
1.0000137
1.0000137
1.0000137
1.0000137
1.0000137
1.0000137
1.0000137
1.0000137
1.0000137
1.0000137
1.0000137
1.0000138
1.0000138
1.0000138
1.0000138
1.0000138
1.0000139
1.0000139
1.0000138
1.0000135
1.0000126
1.0000108
1.0000124
1.0000124
1.0000124
1.0000124
1.0000124
1.0000124
1.0000123
1.0000123
1.0000123
1.0000123
1.0000123
1.0000123
1.0000123
1.0000123
1.0000122
1.0000122
1.0000122
1.0000122
1.0000122
1.0000122
1.0000122
1.0000123
1.0000123
1.0000123
1.0000123
1.0000123
1.0000123
1.0000123
1.0000123
1.0000124
1.0000124
1.0000124
1.0000124
1.0000121
1.0000114
1.0000099
1.0000296
1.0000326
1.0000359
1.0000394
1.0000432
1.0000474
1.0000519
1.0000568
1.0000621
1.0000678
1.000074
1.0000807
1.0000879
1.0000957
1.0001038
1.0001124
1.0001213
1.0001305
1.0001398
1.0001492
1.0001585
1.0001674
1.0001756
1.000183
1.0001891
1.0001937
1.0001962
1.0001963
1.0001939
1.0001887
1.0001805
1.000169
1.0001561
1.0001391
1.0001198
1.0000985
1.0000764
1.0000524
1.0000278
1.0000034
0.99997908
0.9999548
0.99993076
0.99990695
0.99988392
0.99986162
1.0000344
1.0000378
1.0000414
1.0000454
1.0000497
1.0000544
1.0000595
1.0000651
1.0000711
1.0000777
1.0000847
1.0000922
1.0001003
1.0001088
1.0001178
1.0001273
1.0001372
1.0001474
1.0001579
1.0001683
1.0001786
1.0001884
1.0001974
1.0002053
1.0002117
1.000216
1.0002179
1.0002169
1.0002128
1.0002051
1.0001938
1.0001786
1.0001601
1.000138
1.0001129
1.0000853
1.0000555
1.0000241
0.99999166
0.99995868
0.99992571
0.99989315
0.99986136
0.99983033
0.99980081
0.9997709
1.0000374
1.0000412
1.0000452
1.0000496
1.0000544
1.0000596
1.0000653
1.0000715
1.0000782
1.0000854
1.0000932
1.0001016
1.0001105
1.00012
1.0001301
1.0001407
1.0001518
1.0001633
1.000175
1.0001869
1.0001985
1.0002098
1.0002202
1.0002294
1.0002369
1.0002423
1.000245
1.0002445
1.0002404
1.0002324
1.0002201
1.0002036
1.0001828
1.0001579
1.0001293
1.0000976
1.0000632
1.0000267
0.99998876
0.99994978
0.99991036
0.99987098
0.99983214
0.99979398
0.99975707
0.99972137
1.0000388
1.0000428
1.0000471
1.0000518
1.0000569
1.0000625
1.0000686
1.0000752
1.0000824
1.0000901
1.0000985
1.0001075
1.0001172
1.0001275
1.0001385
1.00015
1.0001622
1.0001748
1.0001877
1.0002007
1.0002137
1.0002263
1.0002381
1.0002488
1.0002578
1.0002646
1.0002686
1.0002694
1.0002665
1.0002594
1.000248
1.000232
1.0002115
1.0001866
1.0001577
1.0001253
1.0000899
1.0000522
1.0000126
0.99997178
0.99993023
0.99988847
0.99984701
0.99980607
0.99976616
0.99972738
1.0000395
1.0000436
1.000048
1.0000529
1.0000582
1.000064
1.0000703
1.0000772
1.0000847
1.0000929
1.0001016
1.0001111
1.0001213
1.0001322
1.0001437
1.000156
1.0001689
1.0001823
1.0001961
1.0002101
1.0002241
1.0002378
1.0002508
1.0002627
1.0002729
1.000281
1.0002864
1.0002885
1.0002868
1.000281
1.0002707
1.0002559
1.0002364
1.0002125
1.0001845
1.0001528
1.0001181
1.0000809
1.0000417
1.0000012
0.99995986
0.99991822
0.99987677
0.99983577
0.99979572
0.99975673
1.0000398
1.000044
1.0000485
1.0000535
1.0000589
1.0000648
1.0000713
1.0000784
1.0000861
1.0000944
1.0001035
1.0001132
1.0001237
1.000135
1.000147
1.0001597
1.0001731
1.0001871
1.0002015
1.0002162
1.0002309
1.0002454
1.0002592
1.0002719
1.0002831
1.0002922
1.0002985
1.0003016
1.000301
1.0002962
1.000287
1.0002731
1.0002545
1.0002315
1.0002043
1.0001735
1.0001395
1.0001029
1.0000644
1.0000244
0.99998358
0.99994242
0.99990141
0.99986083
0.99982115
0.99978243
1.0000399
1.0000441
1.0000487
1.0000537
1.0000592
1.0000653
1.0000719
1.000079
1.0000868
1.0000953
1.0001045
1.0001145
1.0001252
1.0001366
1.0001489
1.0001619
1.0001756
1.00019
1.0002048
1.00022
1.0002352
1.0002501
1.0002645
1.0002779
1.0002897
1.0002994
1.0003064
1.0003102
1.0003104
1.0003062
1.0002976
1.0002844
1.0002665
1.000244
1.0002174
1.000187
1.0001534
1.0001172
1.000079
1.0000393
0.99999873
0.99995781
0.99991701
0.99987663
0.99983713
0.99979852
1.0000399
1.0000442
1.0000488
1.0000539
1.0000594
1.0000655
1.0000721
1.0000794
1.0000873
1.0000959
1.0001052
1.0001152
1.000126
1.0001377
1.0001501
1.0001633
1.0001772
1.0001918
1.0002068
1.0002223
1.0002378
1.0002531
1.0002678
1.0002816
1.0002938
1.0003039
1.0003114
1.0003156
1.0003162
1.0003126
1.0003044
1.0002916
1.000274
1.0002519
1.0002256
1.0001954
1.000162
1.000126
1.0000878
1.0000483
1.0000078
0.99996691
0.99992614
0.99988578
0.9998463
0.99980765
1.0000399
1.0000442
1.0000488
1.0000539
1.0000595
1.0000656
1.0000723
1.0000796
1.0000875
1.0000961
1.0001055
1.0001156
1.0001265
1.0001383
1.0001508
1.0001641
1.0001781
1.0001928
1.0002081
1.0002236
1.0002393
1.0002549
1.0002698
1.0002838
1.0002963
1.0003067
1.0003145
1.000319
1.0003199
1.0003166
1.0003088
1.0002963
1.000279
1.0002571
1.0002309
1.0002009
1.0001676
1.0001316
1.0000935
1.0000539
1.0000134
0.99997254
0.99993172
0.9998913
0.99985176
0.99981302
1.0000399
1.0000442
1.0000488
1.0000539
1.0000595
1.0000656
1.0000723
1.0000797
1.0000876
1.0000963
1.0001057
1.0001159
1.0001268
1.0001386
1.0001512
1.0001645
1.0001787
1.0001934
1.0002088
1.0002244
1.0002402
1.0002559
1.000271
1.0002851
1.0002978
1.0003084
1.0003164
1.0003213
1.0003225
1.0003194
1.0003119
1.0002996
1.0002826
1.000261
1.000235
1.0002051
1.0001719
1.0001359
1.0000978
1.0000582
1.0000177
0.99997668
0.99993577
0.99989526
0.99985562
0.99981677
1.0000398
1.0000441
1.0000488
1.0000539
1.0000595
1.0000656
1.0000723
1.0000797
1.0000877
1.0000964
1.0001058
1.000116
1.000127
1.0001388
1.0001514
1.0001648
1.0001789
1.0001938
1.0002091
1.0002249
1.0002407
1.0002565
1.0002717
1.0002859
1.0002987
1.0003096
1.0003178
1.000323
1.0003244
1.0003218
1.0003145
1.0003026
1.0002859
1.0002646
1.0002388
1.0002092
1.0001761
1.0001402
1.0001021
1.0000624
1.0000218
0.99998069
0.99993967
0.99989903
0.99985925
0.99982025
1.0000398
1.0000441
1.0000487
1.0000538
1.0000595
1.0000656
1.0000723
1.0000797
1.0000877
1.0000964
1.0001058
1.000116
1.000127
1.0001388
1.0001514
1.0001648
1.000179
1.0001939
1.0002092
1.000225
1.0002409
1.0002567
1.000272
1.0002864
1.0002994
1.0003104
1.000319
1.0003245
1.0003263
1.0003241
1.0003173
1.0003059
1.0002897
1.0002688
1.0002434
1.000214
1.0001811
1.0001453
1.0001072
1.0000675
1.0000268
0.99998555
0.99994437
0.99990356
0.9998636
0.99982444
1.0000398
1.0000441
1.0000487
1.0000538
1.0000594
1.0000656
1.0000723
1.0000796
1.0000876
1.0000963
1.0001057
1.0001159
1.0001269
1.0001388
1.0001514
1.0001648
1.000179
1.0001938
1.0002092
1.000225
1.0002409
1.0002568
1.0002722
1.0002867
1.0002999
1.0003112
1.0003201
1.000326
1.0003284
1.0003268
1.0003207
1.00031
1.0002944
1.0002741
1.0002493
1.0002203
1.0001877
1.0001521
1.0001141
1.0000743
1.0000335
0.99999208
0.99995067
0.99990962
0.99986938
0.99982995
1.0000398
1.0000441
1.0000487
1.0000538
1.0000594
1.0000655
1.0000723
1.0000796
1.0000876
1.0000963
1.0001057
1.0001159
1.0001268
1.0001386
1.0001512
1.0001646
1.0001788
1.0001936
1.000209
1.0002248
1.0002408
1.0002567
1.0002722
1.0002869
1.0003003
1.000312
1.0003213
1.0003278
1.0003309
1.0003301
1.000325
1.0003153
1.0003007
1.0002813
1.0002573
1.0002289
1.0001968
1.0001614
1.0001235
1.0000837
1.0000427
1.0000011
0.99995936
0.999918
0.9998774
0.99983771
1.0000398
1.000044
1.0000487
1.0000538
1.0000594
1.0000655
1.0000722
1.0000795
1.0000875
1.0000962
1.0001056
1.0001158
1.0001267
1.0001385
1.0001511
1.0001644
1.0001786
1.0001934
1.0002087
1.0002245
1.0002405
1.0002565
1.0002721
1.000287
1.0003007
1.0003128
1.0003228
1.0003301
1.0003341
1.0003345
1.0003306
1.0003222
1.000309
1.0002909
1.0002679
1.0002405
1.000209
1.0001741
1.0001363
1.0000965
1.0000553
1.0000133
0.99997115
0.99992931
0.99988817
0.99984798
1.0000397
1.000044
1.0000487
1.0000537
1.0000593
1.0000655
1.0000722
1.0000795
1.0000874
1.0000961
1.0001055
1.0001156
1.0001266
1.0001383
1.0001508
1.0001642
1.0001783
1.000193
1.0002083
1.0002241
1.0002401
1.0002562
1.0002719
1.000287
1.0003011
1.0003138
1.0003245
1.0003328
1.0003381
1.0003399
1.0003377
1.0003311
1.0003197
1.0003032
1.0002819
1.0002557
1.0002251
1.0001908
1.0001533
1.0001134
1.0000719
1.0000295
0.99998676
0.99994432
0.99990251
0.99986178
1.0000397
1.000044
1.0000486
1.0000537
1.0000593
1.0000654
1.0000721
1.0000794
1.0000874
1.000096
1.0001054
1.0001155
1.0001264
1.0001381
1.0001506
1.0001639
1.0001779
1.0001926
1.0002079
1.0002236
1.0002396
1.0002557
1.0002716
1.0002871
1.0003016
1.000315
1.0003266
1.0003361
1.0003429
1.0003466
1.0003464
1.000342
1.0003329
1.0003188
1.0002994
1.0002749
1.0002457
1.0002121
1.000175
1.000135
1.0000931
1.0000501
1.0000065
0.9999632
0.99992037
0.99987874
1.0000397
1.000044
1.0000486
1.0000537
1.0000593
1.0000654
1.000072
1.0000793
1.0000873
1.0000959
1.0001052
1.0001153
1.0001262
1.0001378
1.0001503
1.0001635
1.0001774
1.0001921
1.0002073
1.000223
1.0002391
1.0002552
1.0002713
1.000287
1.0003021
1.0003162
1.0003289
1.0003398
1.0003484
1.0003542
1.0003566
1.000355
1.0003487
1.0003374
1.0003207
1.0002984
1.0002709
1.0002384
1.0002017
1.0001617
1.0001193
1.0000753
1.0000307
0.99998626
0.99994221
0.9998996
1.0000397
1.000044
1.0000486
1.0000536
1.0000592
1.0000653
1.000072
1.0000793
1.0000872
1.0000958
1.0001051
1.0001151
1.0001259
1.0001375
1.0001499
1.0001631
1.0001769
1.0001915
1.0002067
1.0002224
1.0002384
1.0002546
1.0002709
1.000287
1.0003026
1.0003175
1.0003313
1.0003438
1.0003544
1.0003627
1.0003679
1.0003695
1.0003667
1.0003588
1.0003454
1.0003259
1.0003005
1.0002695
1.0002335
1.0001933
1.0001501
1.000105
1.0000589
1.0000128
0.99996695
0.99992281
1.0000397
1.0000439
1.0000485
1.0000536
1.0000592
1.0000653
1.0000719
1.0000792
1.0000871
1.0000956
1.0001049
1.0001149
1.0001257
1.0001372
1.0001495
1.0001626
1.0001764
1.0001909
1.000206
1.0002216
1.0002376
1.000254
1.0002704
1.0002868
1.000303
1.0003187
1.0003338
1.0003479
1.0003606
1.0003715
1.0003799
1.000385
1.0003862
1.0003823
1.0003727
1.0003568
1.0003341
1.0003049
1.0002697
1.0002294
1.0001852
1.0001385
1.0000904
1.0000423
0.99999432
0.9999485
1.0000397
1.0000439
1.0000485
1.0000536
1.0000591
1.0000652
1.0000718
1.0000791
1.0000869
1.0000955
1.0001047
1.0001147
1.0001254
1.0001369
1.0001491
1.0001621
1.0001758
1.0001902
1.0002053
1.0002208
1.0002368
1.0002532
1.0002698
1.0002865
1.0003032
1.0003198
1.000336
1.0003517
1.0003666
1.0003802
1.0003919
1.0004009
1.0004062
1.0004069
1.0004018
1.0003899
1.0003706
1.0003437
1.0003095
1.000269
1.0002235
1.0001747
1.0001239
1.000073
1.0000222
0.99997393
1.0000397
1.0000439
1.0000485
1.0000536
1.0000591
1.0000652
1.0000718
1.000079
1.0000868
1.0000953
1.0001045
1.0001145
1.0001251
1.0001365
1.0001487
1.0001616
1.0001753
1.0001896
1.0002045
1.00022
1.000236
1.0002524
1.0002691
1.0002861
1.0003033
1.0003206
1.000338
1.0003553
1.0003722
1.0003884
1.0004033
1.0004162
1.000426
1.0004315
1.0004313
1.0004241
1.0004087
1.0003846
1.0003518
1.0003111
1.0002639
1.0002124
1.0001582
1.0001038
1.0000496
0.99999868
1.0000397
1.0000439
1.0000485
1.0000535
1.0000591
1.0000651
1.0000717
1.0000789
1.0000867
1.0000952
1.0001044
1.0001143
1.0001249
1.0001362
1.0001483
1.0001611
1.0001747
1.0001889
1.0002038
1.0002192
1.0002351
1.0002516
1.0002684
1.0002856
1.0003033
1.0003213
1.0003396
1.0003583
1.0003771
1.0003958
1.0004138
1.0004304
1.0004446
1.0004551
1.00046
1.0004579
1.000447
1.0004263
1.0003951
1.0003543
1.0003052
1.0002502
1.0001917
1.0001328
1.0000742
1.0000198
1.0000397
1.0000439
1.0000485
1.0000535
1.0000591
1.0000651
1.0000717
1.0000789
1.0000866
1.0000951
1.0001042
1.0001141
1.0001246
1.0001359
1.0001479
1.0001607
1.0001741
1.0001883
1.000203
1.0002184
1.0002343
1.0002507
1.0002677
1.0002851
1.0003031
1.0003217
1.0003409
1.0003608
1.0003813
1.0004021
1.000423
1.0004431
1.0004615
1.0004767
1.0004869
1.0004901
1.000484
1.0004671
1.0004381
1.0003974
1.0003459
1.000287
1.0002232
1.0001589
1.0000953
1.0000378
1.0000397
1.0000439
1.0000485
1.0000535
1.000059
1.000065
1.0000716
1.0000788
1.0000866
1.000095
1.0001041
1.0001139
1.0001244
1.0001356
1.0001476
1.0001603
1.0001736
1.0001877
1.0002024
1.0002177
1.0002335
1.00025
1.000267
1.0002846
1.0003029
1.0003219
1.0003419
1.0003628
1.0003847
1.0004075
1.0004308
1.000454
1.0004762
1.0004959
1.0005111
1.0005197
1.0005186
1.000506
1.0004794
1.0004391
1.0003852
1.0003218
1.0002518
1.0001814
1.0001127
1.0000516
1.0000397
1.0000439
1.0000485
1.0000535
1.000059
1.000065
1.0000716
1.0000787
1.0000865
1.0000948
1.0001039
1.0001137
1.0001241
1.0001353
1.0001472
1.0001599
1.0001732
1.0001871
1.0002018
1.000217
1.0002328
1.0002492
1.0002663
1.000284
1.0003026
1.000322
1.0003426
1.0003643
1.0003874
1.0004118
1.0004372
1.0004632
1.0004887
1.0005125
1.0005324
1.000546
1.0005499
1.0005418
1.0005179
1.0004785
1.000422
1.0003542
1.0002775
1.0002009
1.0001268
1.0000608
1.0000397
1.0000439
1.0000484
1.0000534
1.0000589
1.0000649
1.0000715
1.0000786
1.0000864
1.0000947
1.0001038
1.0001135
1.0001239
1.0001351
1.0001469
1.0001595
1.0001727
1.0001866
1.0002012
1.0002164
1.0002321
1.0002486
1.0002656
1.0002835
1.0003022
1.000322
1.000343
1.0003655
1.0003896
1.0004153
1.0004424
1.0004707
1.0004991
1.0005264
1.0005505
1.0005689
1.0005775
1.0005739
1.0005529
1.0005148
1.0004559
1.0003844
1.0003006
1.0002176
1.0001357
1.0000627
1.0000396
1.0000439
1.0000484
1.0000534
1.0000589
1.0000649
1.0000714
1.0000785
1.0000863
1.0000946
1.0001036
1.0001133
1.0001237
1.0001348
1.0001466
1.0001591
1.0001723
1.0001862
1.0002007
1.0002158
1.0002315
1.0002479
1.0002651
1.000283
1.0003019
1.0003219
1.0003433
1.0003664
1.0003912
1.000418
1.0004466
1.0004767
1.0005076
1.0005379
1.0005657
1.0005883
1.0006013
1.0006021
1.000584
1.0005477
1.0004866
1.0004125
1.0003208
1.0002309
1.0001372
1.0000583
1.0000396
1.0000438
1.0000484
1.0000534
1.0000589
1.0000648
1.0000714
1.0000785
1.0000862
1.0000945
1.0001035
1.0001132
1.0001235
1.0001346
1.0001464
1.0001588
1.000172
1.0001858
1.0002002
1.0002153
1.000231
1.0002474
1.0002645
1.0002825
1.0003015
1.0003218
1.0003435
1.000367
1.0003925
1.0004201
1.0004499
1.0004816
1.0005145
1.0005474
1.0005782
1.0006045
1.0006215
1.0006263
1.0006111
1.0005772
1.0005142
1.0004383
1.0003375
1.0002399
1.0001311
1.0000533
1.0000396
1.0000438
1.0000484
1.0000534
1.0000588
1.0000648
1.0000713
1.0000784
1.0000861
1.0000944
1.0001034
1.000113
1.0001233
1.0001344
1.0001461
1.0001585
1.0001716
1.0001854
1.0001998
1.0002148
1.0002305
1.0002469
1.0002641
1.0002821
1.0003012
1.0003216
1.0003436
1.0003675
1.0003935
1.0004218
1.0004526
1.0004855
1.00052
1.000555
1.0005885
1.000618
1.0006383
1.0006469
1.0006344
1.0006031
1.0005384
1.0004616
1.0003501
1.0002451
1.0001203
1.0000557
1.0000396
1.0000438
1.0000484
1.0000533
1.0000588
1.0000648
1.0000713
1.0000783
1.000086
1.0000943
1.0001032
1.0001129
1.0001232
1.0001342
1.0001459
1.0001583
1.0001713
1.000185
1.0001994
1.0002144
1.0002301
1.0002465
1.0002636
1.0002817
1.0003009
1.0003215
1.0003437
1.0003678
1.0003942
1.0004231
1.0004546
1.0004886
1.0005244
1.0005612
1.0005969
1.000629
1.0006522
1.0006643
1.0006542
1.0006257
1.0005591
1.000482
1.0003586
1.0002479
1.000109
1.0000712
1.0000396
1.0000438
1.0000483
1.0000533
1.0000588
1.0000647
1.0000712
1.0000783
1.0000859
1.0000942
1.0001031
1.0001127
1.000123
1.000134
1.0001457
1.000158
1.0001711
1.0001847
1.0001991
1.0002141
1.0002297
1.0002461
1.0002633
1.0002814
1.0003007
1.0003213
1.0003437
1.000368
1.0003948
1.0004242
1.0004563
1.0004911
1.000528
1.0005662
1.0006037
1.0006381
1.0006638
1.0006787
1.0006709
1.0006451
1.0005765
1.0004991
1.0003637
1.0002499
1.0000997
1.0000998
1.0000396
1.0000438
1.0000483
1.0000533
1.0000587
1.0000647
1.0000712
1.0000782
1.0000858
1.0000941
1.000103
1.0001126
1.0001229
1.0001338
1.0001455
1.0001578
1.0001708
1.0001845
1.0001988
1.0002137
1.0002294
1.0002457
1.0002629
1.0002811
1.0003004
1.0003212
1.0003437
1.0003682
1.0003953
1.000425
1.0004577
1.0004931
1.0005309
1.0005703
1.0006093
1.0006455
1.0006733
1.0006908
1.0006849
1.0006616
1.000591
1.0005132
1.0003667
1.0002526
1.0001028
1.0001323
1.0000396
1.0000437
1.0000483
1.0000532
1.0000587
1.0000646
1.0000711
1.0000781
1.0000858
1.000094
1.0001029
1.0001125
1.0001228
1.0001337
1.0001453
1.0001576
1.0001706
1.0001842
1.0001985
1.0002135
1.0002291
1.0002454
1.0002626
1.0002808
1.0003002
1.000321
1.0003436
1.0003684
1.0003956
1.0004257
1.0004588
1.0004948
1.0005333
1.0005736
1.0006138
1.0006516
1.0006811
1.0007009
1.0006966
1.0006757
1.000603
1.0005255
1.0003682
1.0002571
1.0001069
1.0001716
1.0000395
1.0000437
1.0000482
1.0000532
1.0000586
1.0000646
1.0000711
1.0000781
1.0000857
1.000094
1.0001028
1.0001124
1.0001226
1.0001335
1.0001451
1.0001574
1.0001704
1.000184
1.0001983
1.0002132
1.0002288
1.0002452
1.0002624
1.0002806
1.0003
1.0003209
1.0003436
1.0003685
1.000396
1.0004263
1.0004597
1.0004962
1.0005353
1.0005764
1.0006176
1.0006566
1.0006877
1.0007092
1.0007061
1.000687
1.0006118
1.0005354
1.0003665
1.0002615
1.0001134
1.0002154
1.0000395
1.0000437
1.0000482
1.0000532
1.0000586
1.0000645
1.000071
1.000078
1.0000856
1.0000939
1.0001028
1.0001123
1.0001225
1.0001334
1.000145
1.0001573
1.0001702
1.0001838
1.000198
1.000213
1.0002286
1.0002449
1.0002622
1.0002804
1.0002999
1.0003208
1.0003436
1.0003686
1.0003962
1.0004268
1.0004605
1.0004974
1.000537
1.0005788
1.0006207
1.0006608
1.000693
1.0007159
1.0007137
1.0006959
1.0006184
1.0005436
1.0003623
1.0002665
1.0001131
1.0002677
0.99983082
0.99989794
0.9999756
1.0000299
1.0000719
1.0001015
1.0001105
1.0000802
0.99998327
0.99983657
0.99975942
0.99974215
0.99974345
0.99980637
1.0001323
1.0004762
1.0005976
1.0006168
1.0006132
1.000614
1.0006231
1.0006314
1.0006342
1.0006307
1.0006212
1.0006074
1.0005928
1.0005802
1.0005708
1.0005654
1.0005629
1.0005619
1.0005615
1.0005612
1.0005611
1.000562
0.99981732
0.99988188
0.99995974
1.0000147
1.0000572
1.0000876
1.0000984
1.0000721
0.99998004
0.99982946
0.99974618
0.9997281
0.99972403
0.99975818
1.0000309
1.0004241
1.000585
1.0006157
1.0006096
1.0006057
1.0006116
1.0006199
1.0006247
1.0006234
1.0006161
1.0006044
1.0005917
1.0005804
1.0005721
1.0005672
1.0005647
1.0005632
1.0005617
1.0005599
1.0005574
1.0005561
0.99980631
0.99987044
0.99994919
1.0000049
1.0000477
1.0000781
1.0000888
1.0000616
0.99996807
0.99981653
0.99973417
0.99971732
0.99971415
0.99974153
0.99999134
1.0004022
1.0005903
1.0006273
1.0006222
1.0006123
1.0006123
1.0006164
1.0006188
1.0006163
1.0006087
1.0005981
1.0005876
1.0005793
1.0005741
1.0005715
1.0005706
1.00057
1.0005691
1.0005677
1.0005659
1.0005651
0.99979668
0.9998605
0.99994018
0.99999668
1.0000399
1.0000706
1.0000815
1.0000541
0.99995984
0.99980682
0.99972365
0.99970708
0.99970349
0.99972359
0.99993323
1.0003563
1.0005763
1.0006253
1.0006232
1.0006132
1.0006115
1.0006137
1.0006147
1.0006113
1.0006035
1.0005935
1.0005843
1.0005776
1.000574
1.0005729
1.0005729
1.0005729
1.0005724
1.0005713
1.0005693
1.0005685
0.99978793
0.99985163
0.9999323
0.99998962
1.0000333
1.0000643
1.0000755
1.0000482
0.99995359
0.99979918
0.99971469
0.99969863
0.99969515
0.99970924
0.99988261
1.0003096
1.0005636
1.0006249
1.0006261
1.0006153
1.0006119
1.0006124
1.0006121
1.0006081
1.0006002
1.0005908
1.0005827
1.0005774
1.0005751
1.0005749
1.0005756
1.0005761
1.0005759
1.000575
1.0005731
1.0005719
0.99977993
0.99984369
0.99992546
0.9999836
1.0000277
1.000059
1.0000705
1.0000432
0.99994819
0.99979226
0.9997063
0.99969047
0.99968717
0.99969699
0.99983447
1.0002565
1.000545
1.0006217
1.0006268
1.0006157
1.0006112
1.0006109
1.0006097
1.0006052
1.0005972
1.0005882
1.000581
1.0005768
1.0005755
1.0005762
1.0005776
1.0005787
1.0005791
1.0005785
1.0005767
1.0005756
0.99977251
0.99983644
0.9999194
0.99997838
1.0000229
1.0000545
1.0000663
1.000039
0.99994341
0.99978596
0.99969841
0.9996828
0.99967985
0.99968702
0.99979364
1.0002004
1.0005234
1.0006177
1.0006273
1.000616
1.0006104
1.0006092
1.0006074
1.0006025
1.0005944
1.0005858
1.0005792
1.0005758
1.0005752
1.0005765
1.0005785
1.00058
1.0005809
1.0005807
1.0005794
1.0005786
0.99976549
0.99982969
0.99991389
0.99997371
1.0000186
1.0000506
1.0000627
1.0000354
0.99993926
0.9997802
0.99969081
0.99967525
0.99967265
0.99967742
0.99975709
1.0001388
1.000496
1.0006113
1.0006263
1.0006153
1.0006088
1.000607
1.0006047
1.0005996
1.0005915
1.0005831
1.000577
1.0005742
1.0005741
1.0005759
1.0005781
1.00058
1.0005813
1.0005816
1.0005809
1.0005805
0.99975873
0.99982327
0.99990871
0.99996939
1.0000147
1.0000471
1.0000595
1.0000322
0.9999355
0.99977481
0.99968336
0.99966781
0.99966558
0.99966804
0.99972653
1.0000754
1.0004637
1.0006034
1.0006249
1.0006145
1.0006069
1.0006043
1.0006017
1.0005964
1.0005883
1.0005802
1.0005746
1.0005721
1.0005724
1.0005744
1.0005769
1.0005791
1.0005807
1.0005815
1.0005814
1.0005814
0.9997521
0.99981705
0.99990376
0.99996529
1.0000111
1.0000438
1.0000564
1.0000292
0.99993181
0.99976945
0.99967591
0.99966033
0.9996585
0.99965867
0.9997015
1.000012
1.0004268
1.0005937
1.0006229
1.0006135
1.0006047
1.0006012
1.0005982
1.0005928
1.0005848
1.000577
1.0005717
1.0005696
1.0005701
1.0005723
1.0005751
1.0005775
1.0005794
1.0005806
1.0005812
1.0005815
0.99974556
0.99981097
0.99989895
0.99996132
1.0000076
1.0000407
1.0000535
1.0000262
0.99992813
0.99976401
0.99966842
0.99965272
0.99965149
0.99964961
0.99968164
0.9999506
1.0003848
1.0005818
1.0006201
1.0006124
1.0006024
1.0005979
1.0005943
1.0005888
1.000581
1.0005735
1.0005685
1.0005667
1.0005674
1.0005698
1.0005727
1.0005753
1.0005775
1.0005792
1.0005803
1.0005808
0.99973902
0.99980493
0.9998942
0.99995742
1.0000042
1.0000376
1.0000507
1.0000232
0.99992439
0.99975849
0.99966085
0.99964493
0.99964448
0.99964129
0.99966479
0.99989173
1.0003378
1.0005676
1.0006164
1.0006112
1.0006001
1.0005944
1.00059
1.0005845
1.0005768
1.0005695
1.0005649
1.0005634
1.0005643
1.0005668
1.0005698
1.0005726
1.0005751
1.0005772
1.0005787
1.0005795
0.99973245
0.99979889
0.99988945
0.99995352
1.0000007
1.0000346
1.0000478
1.0000203
0.99992055
0.99975285
0.99965312
0.99963697
0.99963726
0.99963324
0.99965052
0.99983656
1.0002859
1.0005506
1.0006119
1.00061
1.0005977
1.0005906
1.0005857
1.0005798
1.0005722
1.0005652
1.0005609
1.0005597
1.0005608
1.0005634
1.0005665
1.0005695
1.0005721
1.0005746
1.0005767
1.0005776
0.99972581
0.9997928
0.99988465
0.99994958
0.9999973
1.0000315
1.0000449
1.0000172
0.99991654
0.99974704
0.99964519
0.99962884
0.99962975
0.99962538
0.99963807
0.99978575
1.0002294
1.00053
1.0006063
1.0006088
1.0005954
1.0005868
1.0005811
1.0005748
1.0005672
1.0005605
1.0005566
1.0005556
1.0005569
1.0005596
1.0005628
1.0005658
1.0005687
1.0005714
1.0005739
1.000575
0.99971905
0.99978662
0.99987976
0.99994555
0.99999377
1.0000284
1.000042
1.000014
0.99991234
0.99974099
0.99963701
0.99962044
0.99962194
0.99961756
0.99962711
0.99974116
1.0001687
1.0005052
1.0005997
1.0006074
1.0005931
1.000583
1.0005761
1.0005694
1.0005618
1.0005553
1.0005517
1.0005509
1.0005525
1.0005553
1.0005585
1.0005617
1.0005647
1.0005677
1.0005706
1.0005719
0.99971214
0.99978031
0.99987474
0.9999414
0.99999013
1.0000251
1.0000388
1.0000106
0.99990784
0.9997346
0.99962852
0.99961175
0.99961378
0.99960956
0.99961656
0.99970185
1.0001038
1.0004754
1.0005922
1.0006056
1.0005908
1.0005791
1.000571
1.0005636
1.0005559
1.0005497
1.0005463
1.0005458
1.0005474
1.0005504
1.0005537
1.000557
1.0005602
1.0005635
1.0005668
1.0005681
0.99970507
0.99977386
0.99986958
0.9999371
0.99998635
1.0000217
1.0000355
1.000007
0.99990301
0.99972783
0.99961971
0.99960275
0.99960523
0.99960136
0.99960564
0.99966859
1.000037
1.00044
1.0005828
1.000603
1.0005885
1.0005752
1.0005657
1.0005574
1.0005495
1.0005434
1.0005403
1.00054
1.0005419
1.0005449
1.0005483
1.0005517
1.0005551
1.0005586
1.0005622
1.0005637