/*--------------------------------*- C++ -*----------------------------------*\
| =========                 |                                                 |
| \\      /  F ield         | OpenFOAM: The Open Source CFD Toolbox           |
|  \\    /   O peration     | Version:  v2006                                 |
|   \\  /    A nd           | Website:  www.openfoam.com                      |
|    \\/     M anipulation  |                                                 |
\*---------------------------------------------------------------------------*/
FoamFile
{
    version     2.0;
    format      ascii;
    class       volVectorField;
    location    "6000";
    object      U;
}
// * * * * * * * * * * * * * * * * * * * * * * * * * * * * * * * * * * * * * //

dimensions      [0 1 -1 0 0 0 0];


internalField   nonuniform List<vector> 
21256
(
(0.094332769 5.6516894e-07 0)
(0.094234818 1.0383573e-07 -3.812085e-18)
(0.094216383 1.3463964e-06 3.8598905e-18)
(0.094218966 1.1402728e-06 3.1125053e-20)
(0.094222633 2.0267295e-06 8.2066047e-18)
(0.094224342 2.070456e-06 -8.4807791e-18)
(0.094225706 2.6577997e-06 1.713352e-20)
(0.09422709 2.8984794e-06 9.0898072e-18)
(0.094228041 3.3018231e-06 -9.3768115e-18)
(0.094228369 3.6479879e-06 -9.4587689e-21)
(0.094228281 3.9942256e-06 4.9992651e-18)
(0.094228451 4.3271976e-06 -1.0736886e-28)
(0.094229238 4.6600733e-06 -1.0632389e-17)
(0.094230257 4.9612264e-06 2.7486847e-18)
(0.094231079 5.2495386e-06 2.8180181e-18)
(0.094231622 5.5103482e-06 0)
(0.094231745 5.7595907e-06 0)
(0.094231359 5.999122e-06 0)
(0.094230472 6.2171767e-06 -7.8047143e-19)
(0.094229624 6.4539858e-06 7.6505762e-19)
(0.094230017 6.7540455e-06 1.1455001e-20)
(0.09423099 7.068183e-06 1.1137318e-20)
(0.094231076 7.3812067e-06 1.0818932e-20)
(0.094229862 7.696902e-06 -1.0501174e-20)
(0.094227999 7.9915867e-06 0)
(0.094226589 8.3168084e-06 -9.8710123e-21)
(0.094225923 8.6259116e-06 0)
(0.09422554 8.9915171e-06 -1.850582e-20)
(0.094226035 9.3687189e-06 -1.7901158e-20)
(0.094227133 9.781282e-06 -8.8448359e-18)
(0.094227069 1.020222e-05 1.7118232e-17)
(0.094225471 1.0687615e-05 -8.284113e-18)
(0.094224103 1.121327e-05 0)
(0.094223492 1.1533261e-05 -3.0354155e-20)
(0.094223741 1.2339109e-05 1.9189204e-18)
(0.094223603 1.2636577e-05 -1.8619927e-18)
(0.094343924 4.5241482e-07 5.3796178e-20)
(0.094260489 -1.0205724e-07 0)
(0.094247547 1.1005151e-06 8.8969848e-20)
(0.094251555 7.405468e-07 -3.0691529e-20)
(0.094254568 1.5049327e-06 0)
(0.094255704 1.3368305e-06 0)
(0.094257146 1.8507777e-06 -1.7182678e-20)
(0.09425854 2.0902141e-06 9.105278e-18)
(0.09425934 2.5259374e-06 -9.4309769e-18)
(0.094259506 2.9668435e-06 -9.5477087e-21)
(0.094259293 3.3752476e-06 0)
(0.094259523 3.7108926e-06 0)
(0.094260445 3.9869697e-06 0)
(0.094261477 4.2441808e-06 -2.7853334e-18)
(0.094262285 4.4146948e-06 2.8350454e-18)
(0.094262959 4.5332186e-06 0)
(0.094263161 4.6553058e-06 7.5549272e-19)
(0.094262789 4.7727209e-06 -7.7568949e-19)
(0.094261806 4.9156084e-06 -1.2180839e-20)
(0.094260317 5.1325949e-06 -1.1921224e-20)
(0.094260544 5.4437241e-06 -1.15961e-20)
(0.094261747 5.7720478e-06 1.1268253e-20)
(0.09426205 6.0699539e-06 -1.0939589e-20)
(0.094260967 6.3512806e-06 5.4222022e-18)
(0.094259015 6.5558436e-06 -5.2649192e-18)
(0.094257386 6.7687052e-06 5.1074686e-18)
(0.094256784 6.9404207e-06 -4.9306673e-18)
(0.094256235 7.2256893e-06 9.5476281e-18)
(0.0942565 7.5392719e-06 5.3895499e-20)
(0.094257885 7.8951442e-06 -1.7790039e-17)
(0.094258331 8.2354838e-06 8.5590563e-18)
(0.094256628 8.6229348e-06 0)
(0.094255043 8.9575906e-06 3.9187475e-18)
(0.094254161 9.4930591e-06 -3.7629053e-18)
(0.094254454 9.8731428e-06 -2.8430511e-20)
(0.094254296 1.0352251e-05 5.4929415e-20)
(0.094353197 6.649397e-07 -1.5309058e-19)
(0.094281778 4.6515428e-08 0)
(0.0942736 9.6323206e-07 3.6485729e-18)
(0.094278556 8.1199566e-07 -1.168702e-17)
(0.094280679 1.5018656e-06 8.1060977e-18)
(0.094281439 1.3319092e-06 8.4324814e-18)
(0.094283194 1.7536327e-06 -8.8215788e-18)
(0.09428455 1.7903873e-06 9.1729856e-18)
(0.094285177 1.9808941e-06 -9.5022515e-18)
(0.094285204 2.1634565e-06 1.9270531e-20)
(0.094284859 2.3952993e-06 5.1054107e-18)
(0.09428521 2.6687778e-06 -5.2771488e-18)
(0.094286301 2.9514243e-06 5.4699122e-18)
(0.094287308 3.257998e-06 -5.5979876e-18)
(0.094288088 3.5686861e-06 4.5242007e-20)
(0.094289013 3.8611163e-06 -2.3286626e-20)
(0.094289376 4.0930153e-06 0)
(0.094289072 4.1888577e-06 0)
(0.094288152 4.2121879e-06 2.4700572e-20)
(0.094285709 4.2463351e-06 1.5450763e-18)
(0.094285722 4.3656108e-06 -1.5022255e-18)
(0.094287227 4.5520645e-06 2.9180775e-18)
(0.094287786 4.7718775e-06 -2.8314162e-18)
(0.094286912 5.0644161e-06 5.5322004e-18)
(0.094284973 5.2993561e-06 -5.3364547e-18)
(0.094282993 5.5507762e-06 0)
(0.094282547 5.7401519e-06 4.967554e-18)
(0.094281853 5.9675564e-06 4.7926005e-18)
(0.09428168 6.1490402e-06 -9.26929e-18)
(0.094283137 6.4052994e-06 3.4680959e-20)
(0.094284268 6.6490834e-06 -8.5531119e-18)
(0.094282513 6.9570858e-06 8.1566615e-18)
(0.094280707 7.215254e-06 -3.0418486e-20)
(0.094279465 7.6712418e-06 -3.7044834e-18)
(0.094279875 7.878754e-06 1.6997466e-18)
(0.094279715 8.6332921e-06 1.6117865e-18)
(0.094357278 6.9114072e-07 9.701451e-20)
(0.094296273 -2.6140983e-09 0)
(0.09429274 8.0577565e-07 3.6211596e-18)
(0.09429803 8.0933782e-07 -3.8244824e-18)
(0.094299192 1.3289573e-06 -6.2949432e-20)
(0.094299829 1.4534655e-06 4.2412371e-26)
(0.094302075 1.7883935e-06 -3.4550723e-20)
(0.09430327 1.9483546e-06 0)
(0.094303723 2.0494041e-06 -7.4933394e-20)
(0.09430364 2.1728109e-06 0)
(0.09430312 2.2282742e-06 0)
(0.094303658 2.3537868e-06 -5.3352582e-18)
(0.094304941 2.3962219e-06 5.4908079e-18)
(0.094305849 2.5319288e-06 -2.2221743e-20)
(0.094306548 2.6998547e-06 -2.2908714e-20)
(0.094307846 2.9327756e-06 4.7185724e-20)
(0.094308531 3.1999195e-06 0)
(0.094308295 3.3986952e-06 0)
(0.09430749 3.5677414e-06 0)
(0.094303821 3.6661754e-06 -1.5879494e-18)
(0.094303662 3.7842452e-06 1.5195147e-18)
(0.094305537 3.8707866e-06 -2.3049973e-20)
(0.094306354 4.0009613e-06 0)
(0.094305727 4.1319783e-06 -2.1658377e-20)
(0.09430395 4.2846706e-06 2.0959377e-20)
(0.094301406 4.4448383e-06 5.1857087e-18)
(0.094301241 4.598771e-06 -5.0433357e-18)
(0.09430054 4.7704769e-06 0)
(0.094299796 4.9291763e-06 0)
(0.094300891 5.1434606e-06 8.8534147e-18)
(0.094302878 5.2953617e-06 -8.431699e-18)
(0.094301312 5.5990491e-06 0)
(0.094299221 5.7411381e-06 3.8992002e-18)
(0.094297476 6.1674896e-06 -3.676761e-18)
(0.09429819 6.2940419e-06 5.2929254e-20)
(0.094298036 6.9356068e-06 -9.8671238e-20)
(0.094358099 5.9435734e-07 9.2399753e-20)
(0.094308552 -2.6483443e-08 -3.1894411e-18)
(0.094309288 5.6937434e-07 3.5955232e-18)
(0.094313682 6.2568005e-07 5.8994455e-20)
(0.094314488 8.4704847e-07 8.1352313e-18)
(0.094315212 1.0092075e-06 -8.4160542e-18)
(0.094317905 1.1274746e-06 6.9282383e-20)
(0.094318868 1.3263414e-06 0)
(0.094319158 1.4280783e-06 4.8685345e-18)
(0.094318949 1.6617311e-06 -1.004236e-17)
(0.0943182 1.7027027e-06 5.187567e-18)
(0.094318944 1.898819e-06 -5.3708424e-18)
(0.094320465 1.9125708e-06 5.5957652e-18)
(0.094321209 1.9510178e-06 2.8549525e-18)
(0.094321708 1.9671415e-06 -2.9674543e-18)
(0.094323313 2.0340221e-06 -5.7312598e-26)
(0.094324694 2.1732812e-06 0)
(0.094324554 2.3182941e-06 0)
(0.094323337 2.4747696e-06 0)
(0.094318606 2.5960217e-06 2.470148e-20)
(0.094318431 2.7422656e-06 -3.0477372e-18)
(0.094320627 2.8518181e-06 2.9578521e-18)
(0.094321712 2.9953699e-06 2.2579862e-20)
(0.094321326 3.1139475e-06 5.5979234e-18)
(0.094319793 3.2661799e-06 -5.4142743e-18)
(0.094316491 3.4037037e-06 -5.2492846e-18)
(0.094316688 3.547919e-06 1.0081329e-17)
(0.094316208 3.7167385e-06 4.8867339e-18)
(0.094314942 3.8665376e-06 -9.2681431e-18)
(0.094314688 4.0560986e-06 -8.8640633e-18)
(0.094317427 4.1752141e-06 8.4443728e-18)
(0.094316996 4.4073369e-06 0)
(0.09431419 4.5841399e-06 0)
(0.094311646 4.7840499e-06 5.53059e-20)
(0.094313347 5.0524794e-06 -1.0229427e-19)
(0.094313096 5.3880721e-06 2.2340724e-25)
(0.094371439 -3.7843169e-07 -1.7632988e-19)
(0.094328174 6.3636451e-07 -1.9887114e-19)
(0.094335504 -1.6217066e-07 -5.4110356e-20)
(0.094335719 4.734175e-07 0)
(0.094339235 3.1967271e-07 7.8991889e-18)
(0.094340065 6.6396746e-07 3.2960804e-20)
(0.094342526 7.1558437e-07 -1.781063e-17)
(0.094343922 9.4740346e-07 9.3161327e-18)
(0.094344086 1.1070062e-06 -3.7995561e-20)
(0.094343584 1.3290216e-06 5.0618765e-18)
(0.094342774 1.4692004e-06 -5.2343971e-18)
(0.094343404 1.6730985e-06 -2.1265405e-20)
(0.094345396 1.7915997e-06 -4.3984814e-20)
(0.094346157 2.0117456e-06 4.7523744e-26)
(0.094346312 2.0929646e-06 2.9987347e-18)
(0.094347452 2.2165705e-06 -3.1140827e-18)
(0.09435015 2.2184215e-06 0)
(0.094350756 2.3221947e-06 0)
(0.094346579 2.3645316e-06 0)
(0.09434295 2.603547e-06 0)
(0.094343036 2.8092722e-06 -2.4245841e-20)
(0.094345052 3.0528047e-06 -2.9877047e-18)
(0.094346619 3.144774e-06 2.8958679e-18)
(0.094346627 3.3348664e-06 0)
(0.09434465 3.4015359e-06 2.1342046e-20)
(0.094341186 3.5980224e-06 5.2936785e-18)
(0.094341596 3.7049154e-06 -5.0389191e-18)
(0.094341685 3.8044783e-06 -3.8115495e-20)
(0.094340219 3.958682e-06 -9.3807366e-18)
(0.094336014 3.9981627e-06 1.7792394e-17)
(0.094338343 4.207492e-06 -1.6922158e-17)
(0.094342663 4.0710078e-06 7.9826123e-18)
(0.094337062 4.6416637e-06 0)
(0.09433306 4.2030146e-06 -5.4119942e-20)
(0.094338306 5.3208538e-06 1.9796818e-19)
(0.094337426 4.4203047e-06 8.9439613e-20)
(0.094370844 -1.9351465e-06 1.6853208e-19)
(0.094326884 1.1309294e-06 1.442567e-19)
(0.094349144 4.7889863e-07 5.2935773e-20)
(0.0943408 1.0381555e-06 0)
(0.094351712 1.1472583e-06 -3.090389e-20)
(0.094352562 1.1517042e-06 -3.2911148e-20)
(0.094351396 1.1509573e-06 8.9062259e-18)
(0.094356909 1.2734567e-06 -9.3601256e-18)
(0.094356825 1.1609401e-06 4.9530446e-18)
(0.094355134 1.3137824e-06 -3.4292686e-26)
(0.094355445 1.0601714e-06 -5.3017128e-18)
(0.094353857 1.1994794e-06 -5.4741057e-18)
(0.094357218 1.0638566e-06 2.220916e-20)
(0.094359268 1.1584851e-06 5.8960319e-18)
(0.094358939 1.02219e-06 0)
(0.094356896 1.0958286e-06 -1.2197242e-20)
(0.094360691 9.1530694e-07 0)
(0.094365244 1.1438777e-06 0)
(0.094352569 1.044898e-06 1.2930624e-20)
(0.094355424 1.0028386e-06 1.2580628e-20)
(0.094356259 8.7472053e-07 -3.1273072e-18)
(0.094355941 8.2110776e-07 3.033861e-18)
(0.094359016 7.229894e-07 0)
(0.094360409 6.4231713e-07 0)
(0.094353484 5.9437461e-07 -4.2976677e-20)
(0.094354362 5.3524313e-07 5.3065284e-18)
(0.094353913 4.556001e-07 -5.0866134e-18)
(0.094355358 4.1468508e-07 9.8179348e-18)
(0.094353552 3.8426408e-07 -9.3484771e-18)
(0.094341601 3.8526121e-07 6.9629583e-20)
(0.094339452 4.0703149e-07 0)
(0.094357029 4.4757639e-07 7.916562e-18)
(0.09434341 5.9059442e-07 -6.7042558e-26)
(0.094333957 7.7429463e-07 -6.7198837e-18)
(0.094351694 1.1050635e-06 -1.4363559e-19)
(0.094348045 5.9767114e-07 8.5399693e-20)
(0.094295028 -2.3445258e-06 1.1700913e-18)
(0.094266414 -1.1481374e-06 -1.4900476e-18)
(0.09429049 -8.5788928e-07 -5.1838811e-20)
(0.094273454 -7.0701635e-07 -7.272344e-18)
(0.094293101 -4.7763832e-07 7.9107838e-18)
(0.094277092 -3.7835417e-07 0)
(0.094294002 -1.6563745e-07 0)
(0.094283129 -1.3296752e-07 1.836892e-20)
(0.094292374 -3.6706891e-08 -4.9468009e-18)
(0.094280698 -4.8339377e-08 1.0271828e-17)
(0.094279959 1.5974553e-07 -1.0678493e-17)
(0.094286629 2.801804e-07 5.5081566e-18)
(0.094285172 3.838185e-07 1.119468e-20)
(0.094284676 5.8744009e-07 -2.9597721e-18)
(0.094284065 5.468427e-07 3.0408863e-18)
(0.09428361 8.2123217e-07 1.2287398e-20)
(0.094296133 6.8481074e-07 8.09644e-19)
(0.094294149 7.337024e-07 -8.3297913e-19)
(0.094296069 5.3669569e-07 -9.1077167e-27)
(0.094281488 7.4716351e-07 -2.5366585e-20)
(0.094282216 6.2502652e-07 -1.2315955e-20)
(0.094287213 7.6875138e-07 -1.194872e-20)
(0.094284808 6.6455406e-07 1.1580421e-20)
(0.094291994 5.9894795e-07 0)
(0.094292504 5.4225235e-07 2.1662618e-20)
(0.094281199 5.552651e-07 5.3480088e-18)
(0.094279486 6.5566755e-07 -1.0307153e-17)
(0.094289582 6.0221154e-07 4.910228e-18)
(0.094283061 6.5087017e-07 -1.837441e-20)
(0.094291431 4.6192626e-07 -3.4876756e-20)
(0.094273622 8.361278e-07 8.4334271e-18)
(0.094289582 5.4689573e-07 1.8301045e-26)
(0.09429321 4.7230568e-07 -7.2721387e-18)
(0.094270805 4.8388113e-07 0)
(0.094284644 1.1111473e-06 9.2826494e-20)
(0.094284624 -9.4932059e-08 -8.1716555e-20)
(0.094379346 -9.4064453e-07 3.8697062e-20)
(0.094430933 -1.4469213e-06 -2.9324155e-18)
(0.094398678 -7.1470908e-07 9.7484094e-18)
(0.094430222 -8.4759579e-07 5.0923815e-26)
(0.094405956 -3.2740419e-07 -7.8295766e-18)
(0.094426787 -2.1500262e-07 0)
(0.094407166 2.9103449e-07 -8.9401189e-18)
(0.094410879 3.2095531e-07 9.423226e-18)
(0.094402044 7.4702611e-07 0)
(0.094419192 5.7577288e-07 -5.162897e-18)
(0.094431754 1.2259555e-06 1.0748126e-17)
(0.094433957 1.280894e-06 -5.565675e-18)
(0.094434385 1.7914704e-06 5.7560804e-18)
(0.094434432 1.903653e-06 -5.9538689e-18)
(0.094433597 2.3605033e-06 3.0810997e-18)
(0.094426849 2.4811759e-06 -3.1611465e-18)
(0.094397232 2.8967286e-06 0)
(0.094385597 2.7015555e-06 0)
(0.094393689 2.9917983e-06 -1.3107872e-20)
(0.09441226 2.9037244e-06 1.2770021e-20)
(0.094404603 3.4000225e-06 1.2402599e-20)
(0.09438862 3.2411169e-06 3.0934678e-18)
(0.09438324 3.9211334e-06 -2.9992024e-18)
(0.094379502 4.0720958e-06 -5.7852415e-18)
(0.094392834 4.0715541e-06 5.5911649e-18)
(0.094412913 4.2172161e-06 0)
(0.094407963 4.3864274e-06 -5.1829785e-18)
(0.094392198 4.5099828e-06 1.4889316e-17)
(0.094396984 4.5270502e-06 -9.4566683e-18)
(0.094394122 4.6829849e-06 8.953051e-18)
(0.09440616 4.7155914e-06 -1.6426102e-20)
(0.094373469 5.3688182e-06 -7.8243922e-18)
(0.094390051 4.4902655e-06 0)
(0.094430287 5.571356e-06 -3.2514792e-18)
(0.094378744 5.2778663e-06 -4.5078113e-20)
(0.094377786 4.7984701e-06 2.5062598e-18)
(0.093379218 0.00011892298 0)
(0.093378559 0.0001099411 0)
(0.09337779 0.00010874868 0)
(0.093377171 0.00010469587 0)
(0.093376884 0.00010140857 0)
(0.093377036 9.8095208e-05 2.7080621e-18)
(0.093377433 9.4750346e-05 1.0282936e-25)
(0.093377736 9.1446153e-05 -2.6667792e-18)
(0.093377787 8.8133444e-05 0)
(0.093377704 8.4822093e-05 0)
(0.093377638 8.1506105e-05 0)
(0.093377674 7.8183756e-05 0)
(0.093377962 7.4855647e-05 -2.7109117e-18)
(0.093378522 7.1522026e-05 2.7381906e-18)
(0.093378988 6.8182648e-05 0)
(0.093378996 6.4837542e-05 0)
(0.09337873 6.148778e-05 0)
(0.093378556 5.8135486e-05 0)
(0.093378287 5.4781634e-05 0)
(0.093377609 5.1425347e-05 0)
(0.093376544 4.806657e-05 0)
(0.093375317 4.4707292e-05 0)
(0.093374254 4.1349891e-05 0)
(0.093373617 3.7996402e-05 0)
(0.09337331 3.4646641e-05 0)
(0.093372933 3.1297331e-05 0)
(0.093372185 2.7949651e-05 0)
(0.093371015 2.4613557e-05 0)
(0.093369368 2.1258349e-05 0)
(0.093367015 1.7840223e-05 0)
(0.093363925 1.4648899e-05 0)
(0.093361362 1.1697241e-05 0)
(0.093364452 8.737949e-06 0)
(0.093390171 5.8326474e-06 0)
(0.093493825 2.9648553e-06 0)
(0.093852059 6.709762e-07 0)
(0.093549423 9.0632553e-05 1.3980695e-18)
(0.093549109 8.5112728e-05 1.3990863e-18)
(0.09354861 8.2966651e-05 -2.7417754e-18)
(0.093548267 8.0299117e-05 0)
(0.093548292 7.7599454e-05 0)
(0.093548729 7.5029471e-05 0)
(0.093549338 7.2447495e-05 0)
(0.093549772 6.9891297e-05 0)
(0.093549936 6.7346953e-05 0)
(0.093550019 6.4810847e-05 0)
(0.093550164 6.2279366e-05 0)
(0.093550406 5.9749579e-05 0)
(0.093550852 5.7220277e-05 -2.6800329e-18)
(0.093551482 5.4690809e-05 2.7139021e-18)
(0.093551916 5.2160894e-05 -1.3762424e-18)
(0.093551849 4.9631102e-05 1.3976849e-18)
(0.093551553 4.7100733e-05 0)
(0.093551409 4.4569054e-05 0)
(0.09355122 4.203709e-05 0)
(0.093550665 3.950561e-05 0)
(0.093549762 3.6973586e-05 0)
(0.09354872 3.4440573e-05 0)
(0.093547823 3.1906097e-05 -2.5847989e-18)
(0.093547303 2.9370075e-05 5.108155e-18)
(0.093547078 2.683104e-05 -2.5279611e-18)
(0.09354678 2.4288163e-05 -2.5068177e-18)
(0.093546105 2.1746988e-05 -2.1327783e-26)
(0.093544996 1.9192605e-05 2.4811449e-18)
(0.093543427 1.659237e-05 -2.4782545e-18)
(0.093541188 1.4087896e-05 2.4845796e-18)
(0.093538159 1.1740457e-05 0)
(0.093535328 9.4289645e-06 0)
(0.093537214 7.1179268e-06 0)
(0.09355892 4.819728e-06 2.6713742e-18)
(0.09364898 2.4646295e-06 -2.7526269e-18)
(0.093961772 5.8712983e-07 0)
(0.093689937 6.9301403e-05 0)
(0.093689729 6.6577346e-05 2.6751317e-18)
(0.093689358 6.428801e-05 -2.6178787e-18)
(0.093689148 6.2272099e-05 -2.5774931e-18)
(0.093689339 6.0127106e-05 2.5508786e-18)
(0.093689958 5.809104e-05 0)
(0.093690718 5.6061282e-05 -5.0611374e-18)
(0.093691247 5.4059376e-05 -9.1721093e-26)
(0.0936915 5.2074149e-05 -8.8541548e-26)
(0.09369173 5.0103073e-05 1.0252284e-17)
(0.093692072 4.8141678e-05 -5.1747706e-18)
(0.093692506 4.6186745e-05 0)
(0.093693105 4.4236237e-05 0)
(0.09369382 4.2288602e-05 2.6935022e-18)
(0.093694251 4.0342718e-05 -2.7385878e-18)
(0.093694124 3.8398714e-05 0)
(0.093693783 3.6455377e-05 7.0848843e-19)
(0.093693662 3.4511523e-05 -7.0671865e-19)
(0.093693574 3.2567569e-05 -6.9329722e-19)
(0.093693161 3.0624426e-05 6.8042843e-19)
(0.093692392 2.8680511e-05 -1.3365347e-18)
(0.093691431 2.6735023e-05 1.3138843e-18)
(0.093690536 2.4787341e-05 0)
(0.093689977 2.2836487e-05 0)
(0.093689742 2.0881055e-05 0)
(0.093689482 1.8921989e-05 -4.9764614e-18)
(0.093688861 1.6951816e-05 9.8620847e-18)
(0.093687806 1.4947674e-05 2.6459376e-26)
(0.093686334 1.2980053e-05 -4.8753961e-18)
(0.093684257 1.1131757e-05 4.8704834e-18)
(0.093681329 9.3281467e-06 -4.8888662e-18)
(0.093678193 7.5055844e-06 -2.4702204e-18)
(0.093678634 5.6714016e-06 2.5153848e-18)
(0.093695883 3.847687e-06 -2.574227e-18)
(0.093772852 1.9369657e-06 1.3192612e-18)
(0.094045652 4.7457725e-07 1.303484e-18)
(0.093809423 5.3458175e-05 0)
(0.093809345 5.2126386e-05 0)
(0.093809086 5.0083877e-05 -2.5019527e-18)
(0.093809013 4.8513613e-05 2.47617e-18)
(0.093809378 4.6801071e-05 0)
(0.093810173 4.5189733e-05 0)
(0.093811044 4.3588162e-05 0)
(0.093811591 4.2014314e-05 -4.946058e-18)
(0.093811849 4.0460639e-05 9.9675545e-18)
(0.093812153 3.8923794e-05 -5.0344631e-18)
(0.09381263 3.739969e-05 -5.097192e-18)
(0.093813217 3.5884787e-05 5.17118e-18)
(0.093813959 3.437633e-05 0)
(0.093814755 3.2872091e-05 0)
(0.09381516 3.1370607e-05 0)
(0.093814943 2.9872032e-05 -1.3913607e-18)
(0.093814539 2.8374743e-05 1.4211426e-18)
(0.093814426 2.6877066e-05 0)
(0.093814424 2.537871e-05 0)
(0.093814142 2.3881635e-05 1.370634e-18)
(0.093813512 2.2383637e-05 1.3429256e-18)
(0.093812655 2.0883259e-05 -5.2675145e-18)
(0.093811795 1.9379789e-05 2.585461e-18)
(0.093811215 1.7872722e-05 0)
(0.093810973 1.6360985e-05 0)
(0.093810755 1.4837717e-05 0)
(0.093810194 1.3290999e-05 0)
(0.09380919 1.1760161e-05 0)
(0.093807795 1.0320315e-05 0)
(0.093805873 8.9177966e-06 0)
(0.0938031 7.4897103e-06 0)
(0.093799789 6.0485402e-06 0)
(0.093799059 4.5828295e-06 2.4313743e-18)
(0.093812503 3.1303391e-06 -2.4772861e-18)
(0.093878098 1.544842e-06 0)
(0.094115982 4.0841381e-07 0)
(0.093910106 4.1710117e-05 -1.2143548e-18)
(0.093910113 4.0875786e-05 3.6231178e-18)
(0.09390991 3.9150761e-05 -2.3921987e-18)
(0.093909932 3.7926927e-05 0)
(0.093910438 3.6552196e-05 4.7525989e-18)
(0.093911374 3.5273169e-05 -4.7627469e-18)
(0.093912293 3.4006639e-05 0)
(0.093912773 3.2765537e-05 4.8274618e-18)
(0.093912954 3.154589e-05 -4.8799314e-18)
(0.093913266 3.0343945e-05 0)
(0.093913823 2.9155793e-05 -5.0211222e-18)
(0.093914533 2.7977846e-05 5.1086129e-18)
(0.093915423 2.680677e-05 -2.6033054e-18)
(0.093916316 2.5639883e-05 2.6572625e-18)
(0.093916701 2.447565e-05 0)
(0.093916394 2.3314178e-05 0)
(0.093915929 2.2153752e-05 0)
(0.093915833 2.0992624e-05 0)
(0.093915923 1.9829909e-05 -7.0611874e-19)
(0.093915773 1.8669443e-05 6.8980643e-19)
(0.093915279 1.7507969e-05 0)
(0.093914515 1.6344405e-05 0)
(0.093913668 1.5180043e-05 -2.5822765e-18)
(0.093913041 1.4011666e-05 7.5939086e-18)
(0.093912771 1.2831795e-05 1.8358464e-26)
(0.093912594 1.1637006e-05 -4.8870428e-18)
(0.093912108 1.0463262e-05 4.8143598e-18)
(0.093911167 9.3577552e-06 -4.7521911e-18)
(0.093909849 8.2715636e-06 4.7012341e-18)
(0.093908095 7.1608478e-06 -4.6636155e-18)
(0.093905537 6.03567e-06 0)
(0.093902161 4.8899018e-06 4.6517656e-18)
(0.093900405 3.7091343e-06 -4.693946e-18)
(0.093910388 2.5584966e-06 0)
(0.093965817 1.2149086e-06 0)
(0.094173247 3.7058516e-07 0)
(0.09399579 3.259803e-05 2.3061658e-18)
(0.093995866 3.2176217e-05 -2.2963113e-18)
(0.093995697 3.067077e-05 0)
(0.093995809 2.973146e-05 0)
(0.093996456 2.8630188e-05 0)
(0.093997524 2.7613447e-05 4.6151253e-18)
(0.093998439 2.6611685e-05 3.1886559e-26)
(0.093998765 2.5632478e-05 -4.7105766e-18)
(0.093998794 2.4674444e-05 -4.7769605e-18)
(0.093999066 2.373323e-05 4.8551473e-18)
(0.093999663 2.2805454e-05 4.9447516e-18)
(0.094000483 2.1887468e-05 -5.0454022e-18)
(0.094001545 2.0975601e-05 0)
(0.094002557 2.0067074e-05 2.6390743e-18)
(0.094002927 1.9160463e-05 -5.4091695e-18)
(0.09400253 1.8255868e-05 2.7744634e-18)
(0.094002017 1.7351766e-05 0)
(0.094001961 1.6446072e-05 0)
(0.094002159 1.5537064e-05 0)
(0.094002145 1.4631726e-05 0)
(0.094001783 1.3724946e-05 0)
(0.094001109 1.281887e-05 0)
(0.094000269 1.1913373e-05 0)
(0.093999577 1.0992928e-05 0)
(0.093999257 1.0066631e-05 4.9304507e-18)
(0.093999116 9.1796811e-06 -4.8342861e-18)
(0.09399872 8.3414474e-06 -4.748441e-18)
(0.093997853 7.5034112e-06 4.6730316e-18)
(0.093996603 6.6453712e-06 0)
(0.093995008 5.774029e-06 0)
(0.093992715 4.8792914e-06 -4.5191079e-18)
(0.093989398 3.9701495e-06 -5.1486002e-27)
(0.093986793 3.0038783e-06 4.525158e-18)
(0.093993672 2.1094368e-06 0)
(0.094040009 9.2943701e-07 2.3067639e-18)
(0.094220387 3.6116988e-07 -2.2405982e-18)
(0.094068643 2.5410248e-05 -2.1873217e-18)
(0.094068763 2.5371301e-05 2.1828579e-18)
(0.094068602 2.4060548e-05 0)
(0.094068803 2.3332713e-05 0)
(0.094069598 2.2455452e-05 0)
(0.094070791 2.1649413e-05 -8.9404728e-18)
(0.094071637 2.0858073e-05 9.0526238e-18)
(0.094071709 2.0086324e-05 0)
(0.09407153 1.9335198e-05 4.6734971e-18)
(0.094071741 1.8597799e-05 -9.5285802e-18)
(0.094072356 1.7872582e-05 4.866393e-18)
(0.094073289 1.7155342e-05 0)
(0.094074548 1.6443163e-05 0)
(0.094075688 1.5733081e-05 0)
(0.09407603 1.5024006e-05 0)
(0.094075535 1.4315838e-05 -2.768809e-18)
(0.094074992 1.3607201e-05 2.849914e-18)
(0.094075018 1.2895346e-05 0)
(0.094075352 1.2178025e-05 0)
(0.094075472 1.1467004e-05 0)
(0.09407523 1.0753934e-05 0)
(0.094074638 1.0044223e-05 0)
(0.094073798 9.3285098e-06 0)
(0.094073025 8.6020983e-06 0)
(0.094072631 7.9404142e-06 0)
(0.094072516 7.3218136e-06 4.7754998e-18)
(0.094072226 6.6776519e-06 -4.6770524e-18)
(0.094071454 6.0227583e-06 0)
(0.094070269 5.3506037e-06 0)
(0.094068809 4.6656572e-06 8.8898541e-18)
(0.094066816 3.948233e-06 -8.7843784e-18)
(0.094063695 3.2378202e-06 0)
(0.094060427 2.4186902e-06 4.3564593e-18)
(0.09406451 1.762952e-06 -8.7570124e-18)
(0.094102689 6.7838532e-07 6.6001726e-18)
(0.0942589 3.7446801e-07 -2.1260411e-18)
(0.094130743 1.9839983e-05 2.0722799e-18)
(0.094130888 1.9978225e-05 -6.2230794e-18)
(0.094130716 1.8883366e-05 -2.1053932e-26)
(0.09413102 1.832039e-05 -4.2189389e-18)
(0.094131984 1.7618365e-05 -3.6047273e-26)
(0.09413331 1.6985289e-05 8.6546307e-18)
(0.094134006 1.6365706e-05 0)
(0.094133731 1.5759862e-05 0)
(0.09413334 1.5175099e-05 0)
(0.094133522 1.4597912e-05 9.3419075e-18)
(0.094134154 1.4032464e-05 -9.5692542e-18)
(0.094135217 1.3470911e-05 -4.9096587e-18)
(0.094136694 1.2915429e-05 5.0460245e-18)
(0.094137937 1.2359595e-05 5.193571e-18)
(0.094138209 1.1803176e-05 -5.3519153e-18)
(0.094137594 1.1246013e-05 0)
(0.09413705 1.0685627e-05 0)
(0.094137225 1.0120188e-05 0)
(0.09413773 9.5476632e-06 1.4423299e-18)
(0.094137974 8.9833893e-06 1.3979611e-18)
(0.094137823 8.4118432e-06 4.8281662e-27)
(0.094137291 7.8493105e-06 -7.887928e-18)
(0.094136451 7.3004736e-06 5.1057138e-18)
(0.094135586 6.8021446e-06 0)
(0.094135086 6.3336812e-06 9.6621661e-18)
(0.09413498 5.8483578e-06 -9.4199715e-18)
(0.094134808 5.3492008e-06 0)
(0.094134158 4.8400073e-06 0)
(0.094133033 4.307855e-06 0)
(0.094131658 3.7766238e-06 0)
(0.09412996 3.1836372e-06 8.5280388e-18)
(0.094127183 2.6610204e-06 -8.4268562e-18)
(0.09412347 1.9093595e-06 0)
(0.094125026 1.5144665e-06 0)
(0.094155859 4.4085549e-07 0)
(0.094290276 3.9764646e-07 0)
(0.094183185 1.5501152e-05 0)
(0.094183337 1.5596352e-05 0)
(0.09418313 1.4717679e-05 0)
(0.094183564 1.4320074e-05 0)
(0.094184721 1.374934e-05 0)
(0.094186183 1.3250872e-05 0)
(0.094186614 1.2776106e-05 8.5348715e-18)
(0.094185912 1.2304065e-05 -8.7182019e-18)
(0.094185379 1.1853634e-05 0)
(0.094185609 1.1402629e-05 0)
(0.09418626 1.0970255e-05 0)
(0.094187478 1.0532765e-05 0)
(0.094189166 1.0108302e-05 0)
(0.094190439 9.6750466e-06 5.1399669e-18)
(0.094190561 9.2365331e-06 -5.3108975e-18)
(0.094189782 8.7928106e-06 0)
(0.094189281 8.3429106e-06 0)
(0.094189717 7.8942963e-06 0)
(0.094190423 7.4380561e-06 0)
(0.094190762 6.9845469e-06 0)
(0.094190655 6.5272045e-06 0)
(0.094190147 6.1343463e-06 -5.233339e-18)
(0.094189312 5.7974896e-06 1.0134664e-17)
(0.094188357 5.4444068e-06 4.9124991e-18)
(0.094187721 5.0711413e-06 -9.5381438e-18)
(0.094187599 4.7012526e-06 0)
(0.094187559 4.3046781e-06 0)
(0.094187062 3.9058818e-06 -8.8122545e-18)
(0.094186011 3.449068e-06 -5.2503319e-27)
(0.094184658 3.0523657e-06 -5.1868329e-27)
(0.094183198 2.5045472e-06 -4.9473703e-27)
(0.094180918 2.1936621e-06 1.627112e-17)
(0.094177044 1.4318325e-06 3.5176255e-27)
(0.094176313 1.3662883e-06 -8.0060889e-18)
(0.094200473 2.3370805e-07 -1.9928931e-18)
(0.094315041 4.5404003e-07 1.9082219e-18)
(0.09376458 6.8064965e-07 -7.8266175e-19)
(0.093691501 6.292184e-07 -8.3916039e-19)
(0.093617075 6.4027591e-07 0)
(0.093537706 6.7836756e-07 9.1784564e-25)
(0.093452578 7.217152e-07 -9.8174808e-25)
(0.093362126 7.6525614e-07 0)
(0.093266149 8.0023932e-07 1.1204279e-24)
(0.093164685 8.1937466e-07 -6.2670562e-19)
(0.093057595 8.1870135e-07 1.2741441e-24)
(0.092945551 8.5146202e-07 3.5568425e-19)
(0.092825786 9.2883601e-07 0)
(0.092698702 1.0049745e-06 -4.0222312e-19)
(0.092565004 1.0653312e-06 4.2711598e-19)
(0.092425642 1.1102416e-06 -2.2655449e-19)
(0.092281916 1.1331454e-06 0)
(0.092135593 1.1328414e-06 -2.5420694e-19)
(0.09198904 1.101504e-06 2.6886724e-19)
(0.091845352 9.1694646e-07 -4.3346404e-24)
(0.091708489 6.6923309e-07 -1.4991144e-19)
(0.091583429 3.2618256e-07 1.5805595e-19)
(0.091476184 -1.3846702e-07 0)
(0.091394183 -7.1197541e-07 -8.7548864e-20)
(0.091345043 -1.2911917e-06 -2.8071916e-24)
(0.091338257 -1.8632953e-06 -9.6516714e-20)
(0.091384265 -2.6626891e-06 -3.0868114e-24)
(0.091492047 -3.588148e-06 -5.2926294e-20)
(0.091670924 -4.2600272e-06 -1.687799e-24)
(0.091928454 -5.0637921e-06 1.7609607e-24)
(0.092268932 -5.9859646e-06 1.834397e-24)
(0.0926987 -6.7974736e-06 -1.9078483e-24)
(0.093203739 -7.8112054e-06 0)
(0.093859051 -8.6950272e-06 2.0530126e-24)
(0.094463693 -9.6585701e-06 -1.77419e-28)
(0.095161942 -1.072571e-05 -4.3935101e-24)
(0.095928715 -1.1251686e-05 -1.8571003e-20)
(0.096702901 -1.3789719e-05 -2.336731e-24)
(0.097601681 -1.8388266e-05 1.9702996e-20)
(0.098479294 -1.8201472e-05 -2.0244464e-20)
(0.099296023 -1.5976143e-05 1.0396671e-20)
(0.100031 -1.1421971e-05 -2.1341626e-20)
(0.10069908 -7.8136379e-06 -1.0941533e-20)
(0.10134481 -7.1203903e-06 2.7387873e-24)
(0.10196058 -5.4232351e-06 -5.7451475e-21)
(0.10254823 -5.6569889e-06 5.8760226e-21)
(0.10309011 3.6066355e-08 2.9346399e-24)
(0.10358661 4.5582701e-06 -2.9981425e-24)
(0.093351249 3.5890224e-06 7.4866957e-19)
(0.093221358 3.7822415e-06 -8.0369739e-19)
(0.093088097 4.0541602e-06 -1.7242687e-18)
(0.092945508 4.3821572e-06 8.8133259e-25)
(0.09279139 4.750523e-06 -9.4398179e-25)
(0.092624837 5.1622481e-06 -1.0103374e-24)
(0.09244621 5.6203355e-06 1.0804425e-24)
(0.092251784 6.1345759e-06 6.0529252e-19)
(0.092041298 6.6813021e-06 0)
(0.091814607 7.2715088e-06 -3.4468171e-19)
(0.091573043 7.9064107e-06 -7.3469317e-19)
(0.0913168 8.5725312e-06 3.9114744e-19)
(0.091045881 9.2471196e-06 -1.2482855e-18)
(0.090760675 9.9265661e-06 -2.2110114e-19)
(0.090462176 1.0581505e-05 -4.6950337e-19)
(0.090152181 1.1191857e-05 2.489917e-19)
(0.089833506 1.1723814e-05 -2.6382089e-19)
(0.089510233 1.2015658e-05 0)
(0.089187956 1.2100954e-05 -1.4760672e-19)
(0.088874078 1.1882427e-05 -1.558737e-19)
(0.088577937 1.1229964e-05 5.0168708e-24)
(0.088311415 1.0046398e-05 -8.657549e-20)
(0.088087562 8.0952421e-06 0)
(0.087922478 5.0167507e-06 9.5603226e-20)
(0.0878345 1.4275638e-06 -2.0041081e-19)
(0.087841097 -2.8758505e-06 1.5723533e-19)
(0.08796069 -8.2645577e-06 -4.2991244e-29)
(0.088209952 -1.4620049e-05 1.1396185e-19)
(0.088601486 -2.2122547e-05 0)
(0.089148099 -3.0241776e-05 0)
(0.089846787 -4.1480786e-05 3.8677048e-24)
(0.090713013 -5.0207655e-05 -3.9838836e-24)
(0.091716764 -5.7198859e-05 0)
(0.09284406 -6.7627017e-05 0)
(0.094079561 -7.7053145e-05 1.7561599e-20)
(0.095398116 -8.7905872e-05 -3.5829538e-20)
(0.096775822 -9.826369e-05 -5.471392e-20)
(0.098188926 -0.00010030405 5.5575963e-20)
(0.099614074 -0.00010037875 -9.3857763e-21)
(0.10103074 -0.00010110801 3.8064781e-20)
(0.10242296 -0.00010449664 9.6339813e-21)
(0.10377893 -0.00010964139 -1.9490069e-20)
(0.10508 -0.00011351436 1.4775073e-20)
(0.10635173 -0.00011475067 -1.4923325e-20)
(0.10747641 -0.0001238545 2.4519232e-24)
(0.10887475 -0.00012630699 -4.942819e-24)
(0.093229781 7.3629422e-06 -2.7937438e-18)
(0.09308822 7.9282129e-06 1.4979757e-18)
(0.092935993 8.6238174e-06 1.6051019e-18)
(0.092769515 9.4177501e-06 -1.7184868e-18)
(0.092587115 1.0305784e-05 0)
(0.09238819 1.1290795e-05 -1.9649141e-18)
(0.092171635 1.2385255e-05 0)
(0.091936719 1.3605017e-05 -1.1194597e-18)
(0.091682516 1.4914215e-05 1.1933825e-18)
(0.091407841 1.6325354e-05 2.4242893e-24)
(0.091111967 1.7822339e-05 6.7625654e-19)
(0.090794537 1.9407055e-05 0)
(0.090455437 2.104503e-05 1.5271443e-18)
(0.090094943 2.2745511e-05 -4.0510426e-19)
(0.089713875 2.4445607e-05 4.2942487e-19)
(0.089313825 2.6118019e-05 4.5474751e-19)
(0.08889743 2.7656839e-05 -3.6704495e-24)
(0.088468692 2.898978e-05 -5.0840449e-19)
(0.088033304 2.9964077e-05 2.6835968e-19)