/*--------------------------------*- C++ -*----------------------------------*\
| =========                 |                                                 |
| \\      /  F ield         | OpenFOAM: The Open Source CFD Toolbox           |
|  \\    /   O peration     | Version:  v2006                                 |
|   \\  /    A nd           | Website:  www.openfoam.com                      |
|    \\/     M anipulation  |                                                 |
\*---------------------------------------------------------------------------*/
FoamFile
{
    version     2.0;
    format      ascii;
    class       volVectorField;
    location    "6000";
    object      UMean;
}
// * * * * * * * * * * * * * * * * * * * * * * * * * * * * * * * * * * * * * //

dimensions      [0 1 -1 0 0 0 0];


internalField   nonuniform List<vector> 
21256
(
(0.094344143 5.6292489e-07 0)
(0.094251289 1.2910592e-07 -3.8115381e-18)
(0.094233895 1.3901325e-06 3.859212e-18)
(0.094236261 1.2624912e-06 3.111871e-20)
(0.094239632 2.1481871e-06 8.2048293e-18)
(0.094241272 2.2300128e-06 -8.4789173e-18)
(0.094242763 2.8192165e-06 1.7129667e-20)
(0.094244267 3.0516736e-06 9.0876953e-18)
(0.094245256 3.4800017e-06 -9.3745496e-18)
(0.094245332 3.7680774e-06 -9.4564251e-21)
(0.094244863 4.1266e-06 4.9979971e-18)
(0.094244832 4.4270698e-06 -5.3550758e-28)
(0.094245578 4.7473235e-06 -1.0629526e-17)
(0.094246591 5.046352e-06 2.7479198e-18)
(0.094247386 5.3411072e-06 2.8172081e-18)
(0.094247963 5.6189252e-06 0)
(0.094248477 5.8871014e-06 0)
(0.094248829 6.1587653e-06 0)
(0.094248796 6.4292395e-06 -7.803598e-19)
(0.094248334 6.7102332e-06 7.6508944e-19)
(0.094247804 6.9949334e-06 1.1455563e-20)
(0.094247365 7.2961777e-06 1.1137997e-20)
(0.094246795 7.6018422e-06 1.0819667e-20)
(0.094245951 7.9290168e-06 -1.0501875e-20)
(0.094244987 8.2480708e-06 0)
(0.094244191 8.5942356e-06 -9.8715835e-21)
(0.094243577 8.935344e-06 0)
(0.094243097 9.3111483e-06 -1.8506928e-20)
(0.094243261 9.6854339e-06 -1.7902273e-20)
(0.094244095 1.0105209e-05 -8.8453915e-18)
(0.094244001 1.0530593e-05 1.7119279e-17)
(0.094242392 1.1027244e-05 -8.2846004e-18)
(0.094241034 1.1562952e-05 0)
(0.094240531 1.1936029e-05 -3.0355811e-20)
(0.094240865 1.275668e-05 1.9190235e-18)
(0.09424077 1.3016936e-05 -1.8616638e-18)
(0.094356857 4.6833218e-07 5.3790223e-20)
(0.094277958 -6.7483944e-08 0)
(0.094265797 1.1220395e-06 8.8953504e-20)
(0.094269452 1.025422e-06 -3.0685246e-20)
(0.094272225 1.81439e-06 0)
(0.094273387 1.8036267e-06 0)
(0.094275023 2.3842241e-06 -1.7178995e-20)
(0.094276519 2.502407e-06 9.1032806e-18)
(0.094277358 2.9046604e-06 -9.4288557e-18)
(0.094277154 3.0906007e-06 -9.545543e-21)
(0.094276526 3.3934859e-06 0)
(0.09427663 3.6185816e-06 0)
(0.09427756 3.8763941e-06 0)
(0.094278588 4.1192096e-06 -2.7846617e-18)
(0.094279294 4.3609007e-06 2.8343506e-18)
(0.0942798 4.5980778e-06 0)
(0.094280309 4.8315072e-06 7.5530193e-19)
(0.094280668 5.0685517e-06 -7.7548784e-19)
(0.094280632 5.3000296e-06 -1.2179043e-20)
(0.09428011 5.5321587e-06 -1.1920787e-20)
(0.094279546 5.7556688e-06 -1.1595724e-20)
(0.094279152 5.9952425e-06 1.1268015e-20)
(0.094278645 6.2262256e-06 -1.0939427e-20)
(0.094277828 6.4886332e-06 5.4221114e-18)
(0.094276815 6.7237208e-06 -5.2647911e-18)
(0.094275966 7.0000322e-06 5.1073102e-18)
(0.09427538 7.2477524e-06 -4.9305132e-18)
(0.094274758 7.5446458e-06 9.5473268e-18)
(0.094274604 7.8156106e-06 5.3893932e-20)
(0.094275586 8.142265e-06 -1.7789546e-17)
(0.094275982 8.4481524e-06 8.5588053e-18)
(0.094274267 8.8347567e-06 0)
(0.09427267 9.1811576e-06 3.9186146e-18)
(0.0942719 9.7242036e-06 -3.7627645e-18)
(0.094272264 1.0119864e-05 -2.8429381e-20)
(0.094272141 1.0619031e-05 5.491932e-20)
(0.094367377 6.9321826e-07 -1.5307168e-19)
(0.094299981 6.2726626e-08 0)
(0.094292312 1.0037026e-06 3.6478807e-18)
(0.094296813 9.2330554e-07 -1.1684641e-17)
(0.09429879 1.5177422e-06 8.1044396e-18)
(0.09429965 1.5504353e-06 8.4307649e-18)
(0.094301629 1.9806123e-06 -8.8197674e-18)
(0.094303034 2.0760016e-06 9.171081e-18)
(0.094303719 2.414726e-06 -9.5002586e-18)
(0.094303189 2.5478829e-06 1.9266538e-20)
(0.094302445 2.8048777e-06 5.1043641e-18)
(0.0943028 2.9805247e-06 -5.2760585e-18)
(0.094303947 3.1807995e-06 5.4687724e-18)
(0.094304958 3.3753923e-06 -5.5968126e-18)
(0.094305554 3.5581326e-06 4.5232543e-20)
(0.094305994 3.7453921e-06 -2.3281835e-20)
(0.094306524 3.9276779e-06 0)
(0.094306903 4.1109992e-06 0)
(0.09430688 4.2902241e-06 2.4696969e-20)
(0.094306288 4.4703883e-06 1.5449247e-18)
(0.09430568 4.6427347e-06 -1.502081e-18)
(0.094305344 4.8342694e-06 2.9178285e-18)
(0.094304921 5.0037934e-06 -2.8311929e-18)
(0.094304159 5.2166072e-06 5.5317499e-18)
(0.0943031 5.389665e-06 -5.3359757e-18)
(0.094302146 5.6192612e-06 0)
(0.094301633 5.8047024e-06 4.9670535e-18)
(0.094300979 6.0560168e-06 4.7921055e-18)
(0.09430038 6.2639358e-06 -9.268353e-18)
(0.094301317 6.5419715e-06 3.4677522e-20)
(0.094302399 6.7779621e-06 -8.5522521e-18)
(0.094300646 7.1126045e-06 8.1558192e-18)
(0.09429882 7.3763561e-06 -3.0415287e-20)
(0.094297712 7.8313792e-06 -3.7040799e-18)
(0.094298182 8.0665294e-06 1.6995572e-18)
(0.094298053 8.8212664e-06 1.6114818e-18)
(0.094372731 7.1695103e-07 9.7001201e-20)
(0.094315269 1.516708e-08 0)
(0.094311959 8.0757912e-07 3.6204617e-18)
(0.094316746 7.8856205e-07 -3.8237205e-18)
(0.094317857 1.1702333e-06 -6.2937106e-20)
(0.094318624 1.297e-06 4.4414723e-26)
(0.094321061 1.5570085e-06 -3.4544138e-20)
(0.094322231 1.7113291e-06 0)
(0.094322769 1.928712e-06 -7.4919399e-20)
(0.094321834 2.0778123e-06 0)
(0.094321047 2.2450086e-06 0)
(0.094321771 2.4050116e-06 -5.334333e-18)
(0.094323133 2.5359908e-06 5.4898632e-18)
(0.094324069 2.7068664e-06 -2.2217935e-20)
(0.094324535 2.84732e-06 -2.2904884e-20)
(0.094324906 3.00457e-06 4.7178227e-20)
(0.094325486 3.1548307e-06 0)
(0.094325896 3.3076467e-06 0)
(0.0943259 3.4622498e-06 0)
(0.094325218 3.5975057e-06 -1.5877092e-18)
(0.094324551 3.7315833e-06 1.5192869e-18)
(0.094324285 3.8647795e-06 -2.3046782e-20)
(0.094323964 3.9990668e-06 0)
(0.094323296 4.1423177e-06 -2.16555e-20)
(0.094322212 4.2868341e-06 2.0956449e-20)
(0.09432107 4.4421055e-06 5.1849138e-18)
(0.094320656 4.5954997e-06 -5.0425666e-18)
(0.094320172 4.7755613e-06 0)
(0.094319081 4.9438391e-06 0)
(0.094319568 5.1514035e-06 8.8520692e-18)
(0.094321498 5.3200851e-06 -8.4304187e-18)
(0.094319958 5.6143449e-06 0)
(0.094317854 5.7899848e-06 3.8985966e-18)
(0.094316269 6.1838826e-06 -3.6761806e-18)
(0.094317033 6.3384179e-06 5.2920841e-20)
(0.094316907 6.9818477e-06 -9.8652151e-20)
(0.094374716 5.8102219e-07 9.2385946e-20)
(0.094328058 7.7817841e-09 -3.1888552e-18)
(0.094328826 6.0630665e-07 3.594773e-18)
(0.094332778 6.5362202e-07 5.898159e-20)
(0.094333564 8.8576685e-07 8.1334496e-18)
(0.094334406 1.0501269e-06 -8.4141975e-18)
(0.09433715 1.1664197e-06 6.9267054e-20)
(0.094338103 1.3433685e-06 0)
(0.094338424 1.4179773e-06 4.8674549e-18)
(0.094337009 1.5897189e-06 -1.0040229e-17)
(0.0943363 1.6399179e-06 5.1864737e-18)
(0.094337462 1.8093748e-06 -5.3696941e-18)
(0.094339031 1.87848e-06 5.5945657e-18)
(0.094339843 2.0117205e-06 2.854341e-18)
(0.094340152 2.1082457e-06 -2.9668248e-18)
(0.094340416 2.2171312e-06 -5.6346328e-26)
(0.094341064 2.3242928e-06 0)
(0.094341529 2.4279693e-06 0)
(0.094341516 2.5396144e-06 0)
(0.094340713 2.6499491e-06 2.4699142e-20)
(0.094339982 2.7796442e-06 -3.0474372e-18)
(0.094339767 2.9034578e-06 2.9575868e-18)
(0.094339563 3.0407512e-06 2.2577928e-20)
(0.094339032 3.1726618e-06 5.597419e-18)
(0.094337923 3.3150736e-06 -5.4137331e-18)
(0.09433647 3.4536358e-06 -5.2486632e-18)
(0.094336131 3.602806e-06 1.008011e-17)
(0.094336067 3.7535816e-06 4.8860988e-18)
(0.094334647 3.9222912e-06 -9.2669039e-18)
(0.09433382 4.0978481e-06 -8.8628826e-18)
(0.094336394 4.2306244e-06 8.443247e-18)
(0.094335995 4.4532964e-06 0)
(0.094333252 4.6481021e-06 0)
(0.094330847 4.841242e-06 5.5297829e-20)
(0.094332572 5.1132562e-06 -1.02279e-19)
(0.094332357 5.4665802e-06 2.1976196e-25)
(0.094388251 -3.5042141e-07 -1.7630149e-19)
(0.094347564 6.2406211e-07 -1.9883343e-19)
(0.094354475 -1.1577341e-07 -5.4099433e-20)
(0.094354619 4.9741935e-07 0)
(0.094357841 3.5192729e-07 7.8976409e-18)
(0.09435873 7.0320456e-07 3.2954543e-20)
(0.094360766 7.6877546e-07 -1.7807393e-17)
(0.094362596 9.8633027e-07 9.3144699e-18)
(0.094362162 1.140661e-06 -3.798937e-20)
(0.094360508 1.3023347e-06 5.0611369e-18)
(0.094360123 1.440672e-06 -5.2336667e-18)
(0.094361563 1.5664831e-06 -2.1262437e-20)
(0.094363507 1.6872103e-06 -4.3978837e-20)
(0.09436434 1.8379559e-06 4.671053e-26)
(0.094364489 1.9676517e-06 2.9983609e-18)
(0.09436454 2.1122184e-06 -3.1137071e-18)
(0.094365239 2.2399916e-06 0)
(0.094365922 2.3546558e-06 0)
(0.094365649 2.474325e-06 0)
(0.094364751 2.6348822e-06 0)
(0.094364081 2.7609472e-06 -2.4242158e-20)
(0.094363793 2.9402091e-06 -2.9872749e-18)
(0.09436379 3.0732336e-06 2.8954745e-18)
(0.094363487 3.2549559e-06 0)
(0.094362162 3.3965812e-06 2.1338864e-20)
(0.094360312 3.5631172e-06 5.2928534e-18)
(0.094360113 3.6955388e-06 -5.0380986e-18)
(0.094360661 3.8307967e-06 -3.8108993e-20)
(0.094359502 3.9177842e-06 -9.3790509e-18)
(0.094355307 4.0516457e-06 1.7789202e-17)
(0.094356883 4.1752953e-06 -1.6919204e-17)
(0.094361117 4.122898e-06 7.9812294e-18)
(0.094355991 4.6275225e-06 0)
(0.094351846 4.2666642e-06 -5.4110123e-20)
(0.094357042 5.2915423e-06 1.9793242e-19)
(0.09435627 4.47173e-06 8.9421785e-20)
(0.094388692 -1.846022e-06 1.6850377e-19)
(0.09434723 1.1355437e-06 1.4422893e-19)
(0.094367948 4.7079712e-07 5.2925527e-20)
(0.094359973 1.0948149e-06 0)
(0.094370212 1.116007e-06 -3.0897981e-20)
(0.094370853 1.2270342e-06 -3.2904793e-20)
(0.09436922 1.1753295e-06 8.9045389e-18)
(0.094375465 1.3546917e-06 -9.3581893e-18)
(0.094372583 1.219148e-06 4.9521489e-18)
(0.09437139 1.3609714e-06 -3.2685864e-26)
(0.094371662 1.1780951e-06 -5.3006593e-18)
(0.094372177 1.3075736e-06 -5.4729619e-18)
(0.094375368 1.1777388e-06 2.2204476e-20)
(0.094377202 1.2575383e-06 5.8947744e-18)
(0.094377165 1.119046e-06 0)
(0.094376586 1.211917e-06 -1.2194475e-20)
(0.094377046 1.0622888e-06 0)
(0.094378592 1.209121e-06 0)
(0.09437714 1.1168586e-06 1.2928668e-20)
(0.094376291 1.0630023e-06 1.2579571e-20)
(0.09437621 9.6448701e-07 -3.1270721e-18)
(0.094375317 9.1611752e-07 3.0336729e-18)
(0.094375845 8.3672134e-07 0)
(0.094375969 7.6721375e-07 0)
(0.094373503 7.1434456e-07 -4.2973642e-20)
(0.094371507 6.624132e-07 5.3061053e-18)
(0.094371912 6.1109613e-07 -5.0862306e-18)
(0.094373023 5.7142403e-07 9.81724e-18)
(0.094373041 5.4428496e-07 -9.3475605e-18)
(0.094361565 5.5206689e-07 6.9622973e-20)
(0.094359125 5.9027878e-07 0)
(0.094375231 6.2690335e-07 7.9157731e-18)
(0.094362723 7.6382351e-07 -6.432492e-26)
(0.094353875 9.5358056e-07 -6.7190162e-18)
(0.094370296 1.2917879e-06 -1.4361675e-19)
(0.094367087 8.2283011e-07 8.5383071e-20)
(0.094317788 -2.2450362e-06 1.1698898e-18)
(0.094290785 -1.1137156e-06 -1.4897758e-18)
(0.094313504 -8.2516637e-07 -5.1829725e-20)
(0.094297417 -7.0114708e-07 -7.271106e-18)
(0.094315913 -4.6855175e-07 7.9095551e-18)
(0.094301022 -3.8808044e-07 0)
(0.094316296 -1.6402914e-07 0)
(0.094309712 -2.1421403e-07 1.8367207e-20)
(0.094310021 -1.0814636e-07 -4.9465219e-18)
(0.094303404 -1.0479798e-07 1.0271063e-17)
(0.094304723 9.7715853e-08 -1.0677704e-17)
(0.094308871 2.0472548e-07 5.507834e-18)
(0.09430796 3.2954017e-07 1.1194168e-20)
(0.094307801 4.8651594e-07 -2.9596729e-18)
(0.094307854 4.9024493e-07 3.0408233e-18)
(0.094307146 7.0788914e-07 1.2287225e-20)
(0.09431202 6.3219783e-07 8.09618e-19)
(0.094313917 7.3813156e-07 -8.32901e-19)
(0.094310885 6.0206769e-07 -8.0881911e-27)
(0.094310563 7.1640002e-07 -2.5362085e-20)
(0.094310351 5.8129329e-07 -1.231312e-20)
(0.094310126 7.4201058e-07 -1.1945943e-20)
(0.094308856 6.8900788e-07 1.1578239e-20)
(0.094310931 7.2234246e-07 0)
(0.094311401 7.3395445e-07 2.1661882e-20)
(0.0943079 7.688682e-07 5.3478903e-18)
(0.094304712 8.4662582e-07 -1.0306811e-17)
(0.094308276 8.1518076e-07 4.9101336e-18)
(0.094309722 8.516024e-07 -1.8373517e-20)
(0.094313704 6.5950471e-07 -3.4874304e-20)
(0.094297671 9.6837846e-07 8.432621e-18)
(0.094312464 7.344109e-07 1.6453827e-26)
(0.094315987 6.3070494e-07 -7.2713367e-18)
(0.094294969 6.8461457e-07 0)
(0.094307978 1.2144695e-06 9.2813879e-20)
(0.094307933 1.5242437e-07 -8.1699831e-20)
(0.094393549 -9.3807276e-07 3.8690239e-20)
(0.094445034 -1.4368345e-06 -2.9319181e-18)
(0.094414541 -7.3808952e-07 9.7467884e-18)
(0.094444401 -8.8531491e-07 4.8588487e-26)
(0.094421072 -3.5844702e-07 -7.8285672e-18)
(0.094439332 -3.0306163e-07 0)
(0.094419729 2.544082e-07 -8.9395409e-18)
(0.094416315 1.0853831e-07 9.4233065e-18)
(0.0944186 5.090937e-07 0)
(0.094434964 3.9858323e-07 -5.1629169e-18)
(0.094445791 9.7424812e-07 1.0748482e-17)
(0.094447976 1.0422148e-06 -5.5660252e-18)
(0.094448412 1.5110972e-06 5.7565704e-18)
(0.094448443 1.6282906e-06 -5.954518e-18)
(0.094447974 2.042885e-06 3.0815184e-18)
(0.094444636 2.1610642e-06 -3.1616069e-18)
(0.094429337 2.5488636e-06 0)
(0.094415269 2.5089997e-06 0)
(0.094412851 2.7734073e-06 -1.3106516e-20)
(0.094413912 2.7235061e-06 1.2766739e-20)
(0.094416647 3.0054183e-06 1.2398207e-20)
(0.094419492 3.0252295e-06 3.0921375e-18)
(0.094421342 3.6595718e-06 -2.9979511e-18)
(0.094420042 3.8785965e-06 -5.7831809e-18)
(0.094422456 3.942705e-06 5.5897923e-18)
(0.094426956 4.0830187e-06 0)
(0.094423351 4.2159896e-06 -5.181911e-18)
(0.094411239 4.3494402e-06 1.4886095e-17)
(0.094406212 4.3713753e-06 -9.4548481e-18)
(0.094408683 4.507174e-06 8.9509172e-18)
(0.094420205 4.5439214e-06 -1.6422015e-20)
(0.094390673 5.072888e-06 -7.8222666e-18)
(0.094406465 4.3375238e-06 0)
(0.094444473 5.247253e-06 -3.2506474e-18)
(0.09439571 5.0695769e-06 -4.5065881e-20)
(0.094394843 4.5246879e-06 2.5057275e-18)
(0.09336441 0.00012417796 0)
(0.093363588 0.00011470448 0)
(0.093362612 0.0001135106 0)
(0.093361766 0.0001092549 0)
(0.09336125 0.00010583278 0)
(0.093361172 0.00010236902 2.7146704e-18)
(0.093361302 9.8875945e-05 1.0817544e-25)
(0.093361227 9.5425837e-05 -2.6728138e-18)
(0.093360741 9.1966758e-05 0)
(0.093360062 8.8511078e-05 0)
(0.093359585 8.5053594e-05 0)
(0.093359521 8.1592441e-05 0)
(0.093359834 7.8126428e-05 -2.7161681e-18)
(0.093360363 7.4654225e-05 2.743346e-18)
(0.093360913 7.117504e-05 0)
(0.093361357 6.7688385e-05 0)
(0.093361661 6.4194496e-05 0)
(0.093361739 6.0695472e-05 0)
(0.093361431 5.7193935e-05 0)
(0.093360728 5.3690795e-05 0)
(0.093359742 5.018648e-05 0)
(0.093358634 4.6682832e-05 0)
(0.093357681 4.3181796e-05 0)
(0.093357122 3.9684715e-05 0)
(0.093356863 3.6190823e-05 0)
(0.093356513 3.2696474e-05 0)
(0.093355781 2.9202914e-05 0)
(0.093354644 2.5721077e-05 0)
(0.093353098 2.2220057e-05 0)
(0.093350942 1.8652564e-05 0)
(0.093348113 1.5318426e-05 0)
(0.093345731 1.2235215e-05 0)
(0.093348641 9.1462326e-06 0)
(0.093373368 6.1120485e-06 0)
(0.093474862 3.1138633e-06 0)
(0.093831384 7.0859148e-07 0)
(0.093541901 9.4504394e-05 1.3951728e-18)
(0.093541449 8.8692784e-05 1.3991487e-18)
(0.093540756 8.6476419e-05 -2.7475177e-18)
(0.093540196 8.3686699e-05 0)
(0.093540001 8.0875497e-05 0)
(0.093540214 7.8196769e-05 0)
(0.093540552 7.5504649e-05 0)
(0.093540589 7.283992e-05 0)
(0.09354018 7.0187567e-05 0)
(0.09353962 6.7544482e-05 0)
(0.093539305 6.4907681e-05 0)
(0.0935394 6.227428e-05 0)
(0.093539839 5.9642507e-05 -2.6840271e-18)
(0.093540457 5.7010943e-05 2.7178368e-18)
(0.093541071 5.4378488e-05 -1.37818e-18)
(0.093541571 5.1744427e-05 1.3995792e-18)
(0.093541939 4.9107452e-05 0)
(0.093542088 4.6467595e-05 0)
(0.093541858 4.382737e-05 0)
(0.09354125 4.118832e-05 0)
(0.093540383 3.8549596e-05 0)
(0.093539412 3.5910764e-05 0)
(0.093538586 3.3271224e-05 -2.5830751e-18)
(0.093538134 3.0630493e-05 5.1050729e-18)
(0.093537983 2.7986494e-05 -2.5265904e-18)
(0.093537754 2.53377e-05 -2.5056067e-18)
(0.093537134 2.2689979e-05 -2.2316984e-26)
(0.093536086 2.0028835e-05 2.4802225e-18)
(0.093534633 1.7319111e-05 -2.4774631e-18)
(0.093532604 1.4704593e-05 2.4839192e-18)
(0.093529849 1.2254975e-05 0)
(0.093527228 9.8462742e-06 0)
(0.093528984 7.4375692e-06 0)
(0.093549753 5.0408463e-06 2.6713248e-18)
(0.093637594 2.5887239e-06 -2.7527295e-18)
(0.093947112 6.223045e-07 0)
(0.093688276 7.2164879e-05 0)
(0.093687945 6.931476e-05 2.6782874e-18)
(0.093687389 6.6946622e-05 -2.622027e-18)
(0.093686962 6.4840874e-05 -2.5813992e-18)
(0.093686938 6.2608447e-05 2.5545914e-18)
(0.093687341 6.0489395e-05 0)
(0.093687831 5.8375824e-05 -5.0680069e-18)
(0.093687948 5.6291106e-05 -9.6189215e-26)
(0.093687594 5.4223493e-05 -9.2850876e-26)
(0.093687133 5.2170786e-05 1.026512e-17)
(0.093686964 5.0129124e-05 -5.1810955e-18)
(0.093687206 4.8095443e-05 0)
(0.093687769 4.6067442e-05 0)
(0.093688487 4.4043033e-05 2.696554e-18)
(0.093689178 4.2020399e-05 -2.7416044e-18)
(0.093689744 3.9998339e-05 0)
(0.093690182 3.7974969e-05 7.0853122e-19)
(0.093690415 3.5949351e-05 -7.0608411e-19)
(0.093690267 3.39235e-05 -6.9272217e-19)
(0.093689735 3.189938e-05 6.7990864e-19)
(0.093688932 2.9875579e-05 -1.3355956e-18)
(0.093687987 2.7851076e-05 1.3130373e-18)
(0.093687132 2.5824933e-05 0)
(0.093686638 2.3795741e-05 0)
(0.093686502 2.1761455e-05 0)
(0.093686353 1.9722747e-05 -4.9742783e-18)
(0.09368582 1.7672722e-05 9.8582176e-18)
(0.093684839 1.5586683e-05 2.7711707e-26)
(0.093683483 1.3533957e-05 -4.8739059e-18)
(0.093681614 1.160688e-05 4.8691994e-18)
(0.09367897 9.7300067e-06 -4.8878128e-18)
(0.093676079 7.8325337e-06 -2.4698342e-18)
(0.093676475 5.9234939e-06 2.5151427e-18)
(0.093692908 4.0231716e-06 -2.5740995e-18)
(0.093767561 2.0371638e-06 1.319258e-18)
(0.094035923 5.0284998e-07 1.3035729e-18)
(0.093812523 5.5615302e-05 0)
(0.093812342 5.4218507e-05 0)
(0.09381191 5.2112963e-05 -2.5049535e-18)
(0.093811631 5.0478037e-05 2.4790194e-18)
(0.093811796 4.8696306e-05 0)
(0.093812395 4.7021102e-05 0)
(0.09381301 4.5355185e-05 0)
(0.093813151 4.3717526e-05 -4.9510599e-18)
(0.093812806 4.2100137e-05 9.9773984e-18)
(0.093812424 4.0499633e-05 -5.0393286e-18)
(0.093812386 3.8912506e-05 -5.1020117e-18)
(0.09381275 3.7335601e-05 5.1759554e-18)
(0.093813404 3.5766562e-05 0)
(0.093814182 3.4203053e-05 0)
(0.093814909 3.2643034e-05 0)
(0.0938155 3.1085062e-05 -1.3925115e-18)
(0.093815974 2.952684e-05 1.4221004e-18)
(0.093816256 2.7966728e-05 0)
(0.093816163 2.6406159e-05 0)
(0.093815688 2.4847917e-05 1.3697155e-18)
(0.093814948 2.328998e-05 1.3420949e-18)
(0.093814048 2.1730519e-05 -5.2645105e-18)
(0.093813188 2.0168464e-05 2.5841043e-18)
(0.093812662 1.8602781e-05 0)
(0.093812538 1.7032112e-05 0)
(0.093812469 1.5449586e-05 0)
(0.093812031 1.3842018e-05 0)
(0.093811113 1.2246605e-05 0)
(0.093809827 1.0747163e-05 0)
(0.0938081 9.2896405e-06 0)
(0.093805605 7.8046381e-06 0)
(0.09380256 6.3067912e-06 0)
(0.093801853 4.7835049e-06 2.4310833e-18)
(0.093814609 3.2715379e-06 -2.4770977e-18)
(0.093877916 1.6284839e-06 0)
(0.094110493 4.3200813e-07 0)
(0.093917062 4.3407016e-05 -1.2142524e-18)
(0.093916982 4.2500087e-05 3.6265574e-18)
(0.093916621 4.0717031e-05 -2.3943755e-18)
(0.093916452 3.9449053e-05 0)
(0.093916782 3.8020902e-05 4.7566254e-18)
(0.093917553 3.6692538e-05 -4.7666597e-18)
(0.093918245 3.537671e-05 0)
(0.093918351 3.4086379e-05 4.8312272e-18)
(0.09391798 3.2817101e-05 -4.8836587e-18)
(0.093917672 3.1564817e-05 0)
(0.093917758 3.0326218e-05 -5.0248089e-18)
(0.093918227 2.9098309e-05 5.1122818e-18)
(0.093918952 2.7878813e-05 -2.6051337e-18)
(0.093919772 2.6665216e-05 2.6590872e-18)
(0.093920514 2.545552e-05 0)
(0.093921112 2.4247991e-05 0)
(0.093921606 2.3040305e-05 0)
(0.093921924 2.1830589e-05 0)
(0.093921872 2.0619869e-05 -7.056612e-19)
(0.093921439 1.9412456e-05 6.8939256e-19)
(0.093920749 1.8205349e-05 0)
(0.093919883 1.6996952e-05 0)
(0.093919004 1.5787928e-05 -2.5810463e-18)
(0.093918421 1.4574929e-05 7.5905645e-18)
(0.093918281 1.3350354e-05 1.9168889e-26)
(0.093918287 1.2109655e-05 -4.8852137e-18)
(0.093917956 1.0886473e-05 4.8127083e-18)
(0.093917108 9.7349627e-06 -4.7507033e-18)
(0.093915878 8.6071247e-06 4.6998921e-18)
(0.093914286 7.4531926e-06 -4.6624042e-18)
(0.093911985 6.2847292e-06 0)
(0.093908886 5.0956428e-06 4.6508773e-18)
(0.093907219 3.8704431e-06 -4.6932895e-18)
(0.093916651 2.6731839e-06 0)
(0.09396989 1.286157e-06 0)
(0.094171464 3.904167e-07 0)
(0.094005873 3.3876843e-05 2.3059068e-18)
(0.094005875 3.3449167e-05 -2.2979433e-18)
(0.094005562 3.1881245e-05 0)
(0.0940055 3.0910115e-05 0)
(0.094006005 2.976869e-05 0)
(0.094006949 2.8713901e-05 4.6180025e-18)
(0.094007681 2.7674397e-05 3.3282321e-26)
(0.0940077 2.6657155e-05 -4.713379e-18)
(0.094007291 2.5660088e-05 -4.7797484e-18)
(0.094007072 2.4678513e-05 4.8579283e-18)
(0.094007288 2.3709755e-05 4.9475267e-18)
(0.094007851 2.2750845e-05 -5.0481716e-18)
(0.094008633 2.1799862e-05 0)
(0.094009481 2.0854095e-05 2.6404631e-18)
(0.094010221 1.9911881e-05 -5.4119349e-18)
(0.09401081 1.8971172e-05 2.7758269e-18)
(0.094011313 1.803003e-05 0)
(0.094011659 1.7086142e-05 0)
(0.094011636 1.6140323e-05 0)
(0.094011236 1.5199122e-05 0)
(0.09401059 1.4257986e-05 0)
(0.094009765 1.3318333e-05 0)
(0.094008868 1.2379022e-05 0)
(0.094008209 1.1425228e-05 0)
(0.094008028 1.0464468e-05 4.928598e-18)
(0.0940081 9.5408582e-06 -4.8325957e-18)
(0.094007891 8.6684316e-06 -4.7469012e-18)
(0.094007121 7.7983899e-06 4.6716314e-18)
(0.094005926 6.9076885e-06 0)
(0.094004439 6.003792e-06 0)
(0.094002361 5.0757267e-06 -4.5180421e-18)
(0.093999318 4.1342696e-06 -5.3825466e-27)
(0.093996864 3.1343869e-06 4.5244362e-18)
(0.094003339 2.2022028e-06 0)
(0.094047649 9.9210739e-07 2.3065645e-18)
(0.094221883 3.7748885e-07 -2.2405552e-18)
(0.094081241 2.6385231e-05 -2.1870268e-18)
(0.094081295 2.635628e-05 2.1839933e-18)
(0.094081003 2.4996365e-05 0)
(0.094081049 2.4242915e-05 0)
(0.094081738 2.3336229e-05 0)
(0.094082853 2.2501204e-05 -8.9446171e-18)
(0.09408357 2.1681257e-05 9.0567298e-18)
(0.094083442 2.0880445e-05 0)
(0.094082998 2.0098718e-05 4.6755376e-18)
(0.094082898 1.9329389e-05 -9.5326617e-18)
(0.094083244 1.8571542e-05 4.8684339e-18)
(0.094083886 1.7821522e-05 0)
(0.094084715 1.7078385e-05 0)
(0.094085579 1.6338703e-05 0)
(0.094086301 1.5601712e-05 0)
(0.094086867 1.4864759e-05 -2.7698292e-18)
(0.094087373 1.4126838e-05 2.8509183e-18)
(0.094087742 1.3384571e-05 0)
(0.094087741 1.2639447e-05 0)
(0.094087365 1.1901288e-05 0)
(0.09408676 1.1162712e-05 0)
(0.094085981 1.0428413e-05 0)
(0.094085075 9.6864849e-06 0)
(0.094084326 8.9337993e-06 0)
(0.094084069 8.2441356e-06 0)
(0.094084192 7.5994569e-06 4.7739298e-18)
(0.094084127 6.9309876e-06 -4.6756108e-18)
(0.094083459 6.2511249e-06 0)
(0.094082289 5.5530369e-06 0)
(0.09408087 4.8450164e-06 8.8876069e-18)
(0.094079025 4.101153e-06 -8.7822903e-18)
(0.094076162 3.3674051e-06 0)
(0.094073106 2.5253936e-06 4.3556936e-18)
(0.094076938 1.8347719e-06 -8.755832e-18)
(0.094113303 7.3234266e-07 6.5994882e-18)
(0.094263325 3.8641375e-07 -2.1259531e-18)
(0.094145331 2.0561999e-05 2.0719634e-18)
(0.094145416 2.0718904e-05 -6.2252887e-18)
(0.094145126 1.9588175e-05 -2.1905795e-26)
(0.094145294 1.9002763e-05 -4.2203567e-18)
(0.094146188 1.8280434e-05 -3.7523158e-26)
(0.094147476 1.7624912e-05 8.6574079e-18)
(0.094148104 1.6983315e-05 0)
(0.094147771 1.635514e-05 0)
(0.094147327 1.5746516e-05 0)
(0.09414739 1.514536e-05 9.3446687e-18)
(0.09414786 1.4555031e-05 -9.5720184e-18)
(0.094148565 1.3968833e-05 -4.9110508e-18)
(0.094149436 1.3388925e-05 5.0474424e-18)
(0.094150305 1.2809175e-05 5.1950105e-18)
(0.094150993 1.2231343e-05 -5.3533503e-18)
(0.094151524 1.1651141e-05 0)
(0.094152031 1.1069172e-05 0)
(0.094152423 1.0480155e-05 0)
(0.094152438 9.8887182e-06 1.4416693e-18)
(0.094152077 9.3059483e-06 1.397362e-18)
(0.094151509 8.7162669e-06 4.9768831e-27)
(0.094150785 8.135906e-06 -7.8849329e-18)
(0.094149886 7.5649941e-06 5.1038825e-18)
(0.094149038 7.0442686e-06 0)
(0.094148662 6.5600661e-06 9.6590602e-18)
(0.094148807 6.0570556e-06 -9.4170946e-18)
(0.094148906 5.5384939e-06 0)
(0.09414838 5.014703e-06 0)
(0.094147237 4.459717e-06 0)
(0.094145829 3.9183445e-06 0)
(0.094144193 3.3018893e-06 8.5260296e-18)
(0.094141638 2.7627156e-06 -8.4249928e-18)
(0.094138189 2.0010985e-06 0)
(0.094139653 1.5629446e-06 0)
(0.09416892 4.9106928e-07 0)
(0.094297311 4.0340909e-07 0)
(0.094199304 1.6019165e-05 0)
(0.094199404 1.613425e-05 0)
(0.094199096 1.5233783e-05 0)
(0.094199412 1.4809052e-05 0)
(0.094200532 1.4227747e-05 0)
(0.094201987 1.3712544e-05 0)
(0.094202407 1.3222012e-05 8.5364896e-18)
(0.094201812 1.2733477e-05 -8.7198125e-18)
(0.094201444 1.226767e-05 0)
(0.094201708 1.180115e-05 0)
(0.094202272 1.1348006e-05 0)
(0.09420302 1.0891817e-05 0)
(0.09420393 1.0443973e-05 0)
(0.094204787 9.9895446e-06 5.1408387e-18)
(0.094205418 9.5378311e-06 -5.3117641e-18)
(0.094205901 9.0799619e-06 0)
(0.09420641 8.619865e-06 0)
(0.094206829 8.1502383e-06 0)
(0.094206854 7.6805196e-06 0)
(0.0942065 7.214595e-06 0)
(0.094205963 6.7422851e-06 0)
(0.09420531 6.3324964e-06 -5.2315844e-18)
(0.094204447 5.9820796e-06 1.0131423e-17)
(0.094203504 5.6138155e-06 4.9109979e-18)
(0.094202959 5.2300969e-06 -9.5353545e-18)
(0.094203079 4.8509907e-06 0)
(0.094203366 4.4390845e-06 0)
(0.094203041 4.0469191e-06 -8.8099687e-18)
(0.094201952 3.5877886e-06 -5.3176193e-27)
(0.094200505 3.2056192e-06 -4.7757816e-27)
(0.094199007 2.6467014e-06 -4.0914663e-27)
(0.094196882 2.3234662e-06 1.6267494e-17)
(0.094193306 1.5450908e-06 2.794054e-27)
(0.094192645 1.408245e-06 -8.0047774e-18)
(0.094215505 2.6091548e-07 -1.9926344e-18)
(0.094324402 4.4649699e-07 1.9080726e-18)
(0.093738995 7.2869832e-07 -7.8283164e-19)
(0.093660931 6.8890684e-07 -8.3937483e-19)
(0.093581461 6.9574569e-07 0)
(0.093496899 7.233082e-07 9.1815845e-25)
(0.093406296 7.6240824e-07 -9.8212505e-25)
(0.093310043 8.0625076e-07 0)
(0.093207982 8.4530474e-07 1.1209642e-24)
(0.09310001 8.714221e-07 -6.2703679e-19)
(0.092986058 8.7806344e-07 1.2748862e-24)
(0.092866498 8.9942834e-07 3.5591132e-19)
(0.092739648 9.6992476e-07 0)
(0.092604502 1.0571134e-06 -4.0252659e-19)
(0.092461804 1.1326871e-06 4.2746687e-19)
(0.092312445 1.1897228e-06 -2.2675741e-19)
(0.092157652 1.2274626e-06 0)
(0.091999103 1.2393591e-06 -2.5447878e-19)
(0.091839073 1.2230278e-06 2.691819e-19)
(0.091680549 1.0860084e-06 -4.3401949e-24)
(0.091527376 8.6587264e-07 -1.5012192e-19)
(0.091384383 5.3486703e-07 1.5829925e-19)
(0.091257476 9.9087983e-08 0)
(0.09115386 -4.6241109e-07 -8.7711192e-20)
(0.091081316 -1.0929263e-06 -2.812917e-24)
(0.091049035 -1.6609072e-06 -9.6732352e-20)
(0.091067131 -2.4282223e-06 -3.0943797e-24)
(0.091144812 -3.327224e-06 -5.3068953e-20)
(0.091291473 -4.1044423e-06 -1.6927987e-24)
(0.091514844 -4.9022276e-06 1.7666581e-24)
(0.091819079 -5.774511e-06 1.8409014e-24)
(0.092209135 -6.6286721e-06 -1.9152203e-24)
(0.092677206 -7.4990344e-06 0)
(0.093258326 -8.3529884e-06 2.0626495e-24)
(0.093877977 -9.2196172e-06 -1.5208713e-28)
(0.09452566 -9.8718037e-06 -4.4160676e-24)
(0.095237868 -1.0496794e-05 -1.8674874e-20)
(0.095975792 -1.1934997e-05 -2.3507644e-24)
(0.096776321 -1.5175634e-05 1.9832953e-20)
(0.097609041 -1.6406746e-05 -2.0390337e-20)
(0.098398896 -1.5834619e-05 1.0474963e-20)
(0.099135153 -1.3142585e-05 -2.1504966e-20)
(0.099800009 -9.8764353e-06 -1.1025617e-20)
(0.10042848 -8.3957528e-06 2.760148e-24)
(0.10102224 -6.6900881e-06 -5.7910063e-21)
(0.10158632 -6.2044573e-06 5.9241885e-21)
(0.10210778 -2.561979e-06 2.9593608e-24)
(0.10259672 1.9321788e-06 -3.0237478e-24)
(0.093324917 3.7386443e-06 7.4881169e-19)
(0.093191143 3.9514202e-06 -8.0388151e-19)
(0.0930504 4.2748512e-06 -1.7247503e-18)
(0.0928983 4.6329083e-06 8.8164576e-25)
(0.092734059 5.0178965e-06 -9.4439785e-25)
(0.092557245 5.449175e-06 -1.0108732e-24)
(0.092367232 5.9275266e-06 1.0811152e-24)
(0.092161765 6.4617793e-06 6.0572783e-19)
(0.09193914 7.0438038e-06 0)
(0.091698847 7.6704045e-06 -3.4500309e-19)
(0.091441818 8.3525409e-06 -7.3547043e-19)
(0.091168742 9.0718224e-06 3.9161563e-19)
(0.090879592 9.8154967e-06 -1.2499647e-18)
(0.090574552 1.0563996e-05 -2.2143534e-19)
(0.090254383 1.1305365e-05 -4.7029681e-19)
(0.089920631 1.2004945e-05 2.4946256e-19)
(0.089575863 1.2641569e-05 -2.6437745e-19)
(0.089223892 1.3078345e-05 0)
(0.088870042 1.3308315e-05 -1.4799422e-19)
(0.088521403 1.323108e-05 -1.5633014e-19)
(0.088187055 1.276643e-05 5.0332406e-24)
(0.087878475 1.1775735e-05 -8.689035e-20)
(0.087608775 1.0106582e-05 0)
(0.087393643 7.3645842e-06 9.603401e-20)
(0.087250924 3.9061294e-06 -2.0141593e-19)
(0.087198293 -2.5452386e-07 1.5811101e-19)
(0.087254229 -5.3959272e-06 -7.1263849e-29)
(0.087435672 -1.1454205e-05 1.1474057e-19)
(0.087755198 -1.8562014e-05 0)
(0.088224461 -2.6428574e-05 0)
(0.088845123 -3.6170092e-05 3.9022918e-24)
(0.089622386 -4.592264e-05 -4.0237031e-24)
(0.090543989 -5.3799436e-05 0)
(0.091590064 -6.2152505e-05 0)
(0.092742837 -7.1159636e-05 1.7777221e-20)
(0.093979958 -8.0539072e-05 -3.6290995e-20)
(0.095277683 -9.0265492e-05 -5.5458366e-20)
(0.096613081 -9.5289474e-05 5.6385776e-20)
(0.097964128 -9.7052143e-05 -9.5303961e-21)
(0.099310608 -9.7915362e-05 3.8677119e-20)
(0.10063658 -9.9789258e-05 9.7935922e-21)
(0.10192991 -0.00010331882 -1.9821445e-20)
(0.10317481 -0.00010658083 1.5032749e-20)
(0.10438404 -0.00010831108 -1.5190267e-20)
(0.10548589 -0.00011461291 2.4967517e-24)
(0.10672667 -0.00011711513 -5.0364073e-24)
(0.093204881 7.662123e-06 -2.794182e-18)
(0.09305568 8.2729391e-06 1.4982916e-18)
(0.092895473 9.069709e-06 1.605517e-18)
(0.092720371 9.9271359e-06 -1.7190445e-18)
(0.092528336 1.0856966e-05 0)
(0.092318659 1.1892204e-05 -1.9658829e-18)
(0.092090183 1.3039772e-05 0)
(0.091841898 1.4317225e-05 -1.120249e-18)
(0.091572887 1.5713711e-05 1.1943641e-18)
(0.091281953 1.7219047e-05 2.426604e-24)
(0.090968112 1.8838904e-05 6.7699921e-19)
(0.090630799 2.0547865e-05 0)
(0.090269745 2.2344535e-05 1.5293389e-18)
(0.089885022 2.4202978e-05 -4.0576818e-19)
(0.089477224 2.6105183e-05 4.3022222e-19)
(0.08904767 2.7986459e-05 4.557054e-19)
(0.088598711 2.9785158e-05 -3.679187e-24)
(0.088134023 3.1392997e-05 -5.097713e-19)
(0.087658954 3.2694169e-05 2.6917277e-19)