/*--------------------------------*- C++ -*----------------------------------*\
| =========                 |                                                 |
| \\      /  F ield         | OpenFOAM: The Open Source CFD Toolbox           |
|  \\    /   O peration     | Version:  v2006                                 |
|   \\  /    A nd           | Website:  www.openfoam.com                      |
|    \\/     M anipulation  |                                                 |
\*---------------------------------------------------------------------------*/
FoamFile
{
    version     2.0;
    format      ascii;
    class       volVectorField;
    location    "6000";
    object      wallShearStress;
}
// * * * * * * * * * * * * * * * * * * * * * * * * * * * * * * * * * * * * * //

dimensions      [1 -1 -2 0 0 0 0];


internalField   uniform (0 0 0);

boundaryField
{
    Side
    {
        type            empty;
    }
    Ground
    {
        type            calculated;
        value           uniform (0 0 0);
    }
    Inlet
    {
        type            calculated;
        value           uniform (0 0 0);
    }
    Airfoil
    {
        type            calculated;
        value           nonuniform List<vector> 
321
(
(4.3122589e-06 2.1328848e-06 -3.5264831e-38)
(8.0136598e-06 2.458773e-06 1.5778055e-20)
(6.1461042e-06 1.7410724e-06 8.6741957e-29)
(4.8897553e-06 1.4503394e-06 -1.1763856e-20)
(3.9693634e-06 1.1485823e-06 1.3303491e-20)
(3.440121e-06 9.3897127e-07 1.4337422e-20)
(3.1989909e-06 8.5913404e-07 1.4743508e-23)
(3.1667134e-06 8.3203598e-07 -1.5600526e-20)
(3.1948901e-06 8.148833e-07 -1.5988862e-20)
(3.2444705e-06 8.0560449e-07 -3.0562853e-37)
(3.3097101e-06 8.0433761e-07 1.1754944e-38)
(3.370918e-06 8.061165e-07 1.6754738e-20)
(3.4090576e-06 8.034129e-07 -2.3509887e-38)
(3.4355953e-06 7.9891251e-07 1.1754944e-38)
(3.4492902e-06 7.8825787e-07 -1.7484502e-20)
(3.4576047e-06 7.7272146e-07 5.9325731e-37)
(3.4758945e-06 7.6422729e-07 -1.8002755e-20)
(3.4907475e-06 7.4247419e-07 -1.1754944e-38)
(3.5060116e-06 7.3444377e-07 -5.8774718e-39)
(3.5267414e-06 7.1688181e-07 9.4202752e-21)
(3.5366222e-06 7.0697023e-07 -3.7144635e-23)
(3.5510411e-06 6.9059973e-07 3.7627352e-23)
(3.5561617e-06 6.7940797e-07 -1.9551847e-20)
(3.5688878e-06 6.6316884e-07 -9.8786552e-21)
(3.5702036e-06 6.5083845e-07 2.0049331e-20)
(3.5790724e-06 6.2999417e-07 -1.0179125e-20)
(3.5799821e-06 6.1791417e-07 -5.8774718e-39)
(3.5829285e-06 5.899228e-07 -6.4652189e-38)
(3.5883283e-06 5.7459794e-07 -1.0483986e-20)
(3.5777576e-06 5.4373896e-07 1.0563669e-20)
(3.5846219e-06 5.2124666e-07 -1.0689778e-20)
(3.5631196e-06 4.9382229e-07 -4.2344511e-23)
(3.5630756e-06 4.6121377e-07 1.0989583e-20)
(3.5470407e-06 4.3851559e-07 2.9387359e-39)
(3.5181643e-06 3.9801911e-07 2.2386118e-20)
(3.5168846e-06 3.7118383e-07 -1.1295606e-20)
(3.4679211e-06 3.3756993e-07 -4.4545102e-23)
(3.438018e-06 2.9738112e-07 4.4996239e-23)
(3.4049196e-06 2.6339224e-07 6.0438173e-27)
(3.3039427e-06 2.1007044e-07 -4.5905628e-23)
(3.2987681e-06 1.7027743e-07 1.1897434e-20)
(3.1887745e-06 1.2800867e-07 -1.1987657e-20)
(3.0232801e-06 5.0165592e-08 4.7279536e-23)
(3.0189507e-06 6.5947911e-09 -4.7665109e-23)
(2.8033943e-06 -5.9844642e-08 -1.2366091e-20)
(2.5988184e-06 -1.5725323e-07 1.2554978e-20)
(2.573799e-06 -2.0329007e-07 -9.8049822e-23)
(2.2841606e-06 -2.8998777e-07 4.9431602e-23)
(2.0281162e-06 -3.8840727e-07 -1.0285576e-38)
(1.9419716e-06 -4.5715194e-07 -6.4548151e-21)
(1.5766433e-06 -5.4719867e-07 6.5073177e-21)
(1.2349674e-06 -6.6425408e-07 6.5824165e-21)
(1.1052353e-06 -7.7338985e-07 -6.6399603e-21)
(5.9210322e-07 -8.8490043e-07 -1.4004913e-39)
(7.2875479e-08 -1.0179808e-06 -6.768897e-21)
(-2.8345134e-08 -1.1591331e-06 6.833179e-21)
(-7.854609e-07 -1.2807179e-06 -6.8469685e-21)
(-1.6014439e-06 -1.4209819e-06 -1.0285576e-37)
(-1.7354242e-06 -1.5682515e-06 6.9082635e-21)
(-2.5390964e-06 -1.6983434e-06 6.8908746e-21)
(-3.630796e-06 -1.8267794e-06 -5.3755017e-23)
(-4.0948663e-06 -1.9764617e-06 -6.8643913e-21)
(-4.608229e-06 -2.1356247e-06 5.4058326e-23)
(-5.8442113e-06 -2.2409174e-06 -8.2267409e-27)
(-6.7903552e-06 -2.3704875e-06 6.8752146e-21)
(-6.9949013e-06 -2.5617867e-06 7.0037131e-21)
(-8.1711988e-06 -2.6640507e-06 -9.0920583e-27)
(-9.4957858e-06 -2.769697e-06 -8.8341096e-27)
(-9.8506281e-06 -2.9501017e-06 1.3891714e-20)
(-1.0618667e-05 -3.1160585e-06 6.9771719e-21)
(-1.208646e-05 -3.1995828e-06 8.8162076e-38)
(-1.3169424e-05 -3.3321625e-06 -1.39906e-20)
(-1.344334e-05 -3.5746014e-06 -5.4850611e-23)
(-1.4893982e-05 -3.6667141e-06 7.1274033e-21)
(-1.6803953e-05 -3.7111381e-06 -3.5591439e-21)
(-1.7372312e-05 -3.8963116e-06 -3.5166602e-21)
(-1.7829357e-05 -4.1466645e-06 7.3468397e-40)
(-1.9911478e-05 -4.1325057e-06 5.5018419e-23)
(-2.2032447e-05 -4.1463267e-06 -1.0173392e-26)
(-2.2059263e-05 -4.4114763e-06 3.4836518e-21)
(-2.3045979e-05 -4.5797192e-06 -3.6087469e-21)
(-2.5368251e-05 -4.5333596e-06 -3.4786056e-21)
(-2.7092575e-05 -4.5901051e-06 -3.5375524e-21)
(-2.720449e-05 -4.87415e-06 1.4693679e-39)
(-2.8582809e-05 -4.9634889e-06 3.6222622e-21)
(-3.113267e-05 -4.8665846e-06 -5.5485291e-23)
(-3.2478283e-05 -4.9543117e-06 3.3060779e-39)
(-3.2656373e-05 -5.2366731e-06 -3.5920633e-21)
(-3.4241661e-05 -5.2751179e-06 3.5317302e-21)
(-3.6883458e-05 -5.1677277e-06 5.5997888e-23)
(-3.8006834e-05 -5.2929822e-06 -3.5983515e-21)
(-3.8324595e-05 -5.5580825e-06 3.6191474e-21)
(-3.996863e-05 -5.5860569e-06 3.5638908e-21)
(-4.2572022e-05 -5.4894773e-06 1.1666532e-26)
(-4.3697374e-05 -5.6232943e-06 5.674868e-23)
(-4.4172452e-05 -5.874139e-06 6.6121557e-39)
(-4.5823877e-05 -5.9182067e-06 -7.3533648e-21)
(-4.8440077e-05 -5.8278233e-06 5.7131495e-23)
(-4.9687159e-05 -5.9609583e-06 -2.8658185e-23)
(-5.0071755e-05 -6.2522512e-06 -1.8826277e-39)
(-5.1863387e-05 -6.3008819e-06 8.7138344e-40)
(-5.5303116e-05 -6.0880481e-06 -9.8534824e-40)
(-5.7103494e-05 -6.1469786e-06 -8.8681392e-44)
(-5.7061644e-05 -6.5051041e-06 2.2214953e-39)
(-5.8552539e-05 -6.618989e-06 -3.87431e-40)
(-6.3123666e-05 -6.1828141e-06 2.8849424e-23)
(-6.6366062e-05 -5.9873873e-06 -2.8805329e-23)
(-6.5706817e-05 -6.3915718e-06 -1.8599354e-21)
(-6.6063057e-05 -6.6907258e-06 -7.2712205e-27)
(-7.0896802e-05 -6.1269129e-06 3.7046412e-21)
(-7.5998316e-05 -5.5824367e-06 -7.7141817e-39)
(-7.5072691e-05 -5.9895758e-06 2.8996206e-23)
(-7.5139368e-05 -6.249624e-06 -1.8737651e-21)
(-7.7939005e-05 -6.010992e-06 -1.8962431e-21)
(-8.2052947e-05 -5.6032976e-06 5.5652311e-38)
(-8.2572539e-05 -5.7805099e-06 -9.8137976e-40)
(-8.3061817e-05 -5.9398473e-06 -9.1835496e-41)
(-8.4317544e-05 -5.9992997e-06 -9.1494686e-22)
(-8.6432173e-05 -5.9516337e-06 -5.9085463e-23)
(-8.7914892e-05 -6.0204116e-06 -9.1976337e-22)
(-8.8289608e-05 -6.2652926e-06 -1.9107815e-21)
(-8.9032879e-05 -6.5192174e-06 6.116244e-38)
(-9.3370742e-05 -6.1589972e-06 -2.2958874e-41)
(-9.7656506e-05 -5.8045592e-06 -2.9682005e-23)
(-9.5744803e-05 -6.3857787e-06 5.4923998e-27)
(-9.4377015e-05 -7.0081956e-06 -9.6874393e-22)
(-0.00010284146 -6.194595e-06 4.4416086e-23)
(-0.00011633212 -4.0763169e-06 -1.4417634e-23)
(-0.00011606879 -3.8489861e-06 2.8239415e-39)
(-0.00010942495 -4.8270688e-06 4.5416168e-22)
(-0.00010872736 -5.3571716e-06 -4.4286173e-22)
(-0.00013205413 -1.7275734e-06 -1.3898822e-23)
(-0.00014774705 2.6545477e-06 -1.0809137e-22)
(-0.00013123084 5.413012e-07 -6.8876622e-41)
(-0.00012377024 -5.2605174e-07 1.4243511e-23)
(-0.00013692641 1.3291626e-06 9.5835476e-23)
(-0.00016040445 8.0196752e-06 -4.1912453e-22)
(-0.00015561531 8.820387e-06 -1.3025341e-23)
(-0.0001422778 7.0140156e-06 1.3379596e-23)
(-0.00013655763 6.3375785e-06 -1.3698247e-23)
(-0.00015524737 1.0314917e-05 1.3019333e-23)
(-0.00016720992 1.6073701e-05 8.0332358e-22)
(-0.00014847508 1.2859348e-05 -8.1797961e-22)
(-0.00013906734 1.1633789e-05 4.0407618e-39)
(-0.00014616592 1.3458673e-05 8.531244e-22)
(-0.00016801251 2.0514438e-05 -1.2533258e-23)
(-0.00016606454 2.3139461e-05 1.5897348e-21)
(-0.00014862125 1.9931502e-05 1.6348319e-21)
(-0.0001404059 1.8871671e-05 -7.3468397e-40)
(-0.00015344581 2.2300401e-05 -6.3250015e-44)
(-0.00016627151 2.900029e-05 1.3224311e-38)
(-0.00015134628 2.6651474e-05 3.1874445e-21)
(-0.00014000211 2.4608137e-05 0)
(-0.00013476396 2.4040455e-05 -6.5563937e-24)
(-0.00014494234 2.7165807e-05 1.6148766e-21)
(-0.00014860307 3.0981213e-05 1.6075144e-21)
(-0.00013310104 2.7332748e-05 -1.6388058e-21)
(-0.00012540459 2.6000403e-05 -1.700672e-21)
(-0.00012576044 2.6776773e-05 1.6883316e-21)
(-0.00013687546 3.0933093e-05 -1.6207979e-21)
(-0.00013607101 3.3074131e-05 4.5917748e-41)
(-0.00012245804 2.9642083e-05 -1.6458294e-21)
(-0.00011627082 2.8567096e-05 -6.6518365e-24)
(-0.0001185833 2.9662462e-05 2.3251706e-28)
(-0.00012575438 3.2762856e-05 0)
(-0.000120743 3.3232714e-05 -1.6327713e-21)
(-0.00011064475 3.053471e-05 -2.9387359e-39)
(-0.00010591695 2.9641048e-05 3.4434367e-21)
(-0.00010831265 3.0460682e-05 0)
(-0.00011188732 3.2978601e-05 1.6746128e-21)
(-0.00010523273 3.1842685e-05 3.3603031e-21)
(-9.7599996e-05 2.9778702e-05 1.7312482e-21)
(-9.4453662e-05 2.9317806e-05 7.3468397e-39)
(-9.918796e-05 3.0874604e-05 3.3621115e-21)
(-0.00010343645 3.403257e-05 3.2765754e-24)
(-9.6535113e-05 3.2427006e-05 1.6826958e-21)
(-9.0189748e-05 3.0579156e-05 -1.695732e-24)
(-8.7144007e-05 2.9948143e-05 -1.7625413e-21)
(-8.8866703e-05 3.0610167e-05 -2.9387359e-39)
(-9.0146328e-05 3.2199223e-05 -1.6803223e-24)
(-8.4894473e-05 3.0657998e-05 1.695242e-24)
(-8.013716e-05 2.9191397e-05 -5.464212e-39)
(-7.7722895e-05 2.8700785e-05 -2.9387359e-39)
(-7.8960651e-05 2.9323724e-05 1.7606062e-21)
(-7.9810978e-05 3.0330824e-05 -8.6013898e-25)
(-7.5356848e-05 2.8916091e-05 -1.4693679e-38)
(-7.1586945e-05 2.7787948e-05 1.8215309e-21)
(-7.0543238e-05 2.782405e-05 1.8127653e-21)
(-7.3746172e-05 2.9146638e-05 -1.7402639e-21)
(-7.6007307e-05 3.1049236e-05 1.7420809e-21)
(-7.1763881e-05 2.9662111e-05 1.7577843e-21)
(-6.8036373e-05 2.8366067e-05 -2.2339756e-27)
(-6.5907023e-05 2.7818748e-05 -1.1754944e-38)
(-6.5895329e-05 2.7994206e-05 -3.607285e-21)
(-6.5897832e-05 2.8304903e-05 -8.8230812e-25)
(-6.2841956e-05 2.7164247e-05 3.6565361e-21)
(-6.0140403e-05 2.6222396e-05 -5.8774718e-39)
(-5.887431e-05 2.5964656e-05 1.8310255e-24)
(-5.9600232e-05 2.6420321e-05 -3.5845836e-24)
(-6.001114e-05 2.6914719e-05 -2.5627296e-28)
(-5.7044941e-05 2.5765242e-05 -1.8654846e-21)
(-5.4454226e-05 2.4785596e-05 -1.9109242e-21)
(-5.341496e-05 2.4574083e-05 -1.8771422e-24)
(-5.4291359e-05 2.5097559e-05 1.8748193e-21)
(-5.5050081e-05 2.5837226e-05 -1.8848709e-21)
(-5.3179749e-05 2.5356605e-05 -9.4700986e-22)
(-5.272593e-05 2.5777367e-05 9.316813e-22)
(-5.4723851e-05 2.7671803e-05 8.8148054e-22)
(-5.960384e-05 3.1101313e-05 -2.9387359e-39)
(-6.5976302e-05 3.6011393e-05 -2.9387359e-39)
(-7.2674523e-05 4.1004642e-05 6.8294937e-22)
(-8.1022472e-05 4.7098012e-05 -5.8774718e-39)
(-9.1497079e-05 5.383399e-05 -5.5857166e-22)
(-0.00010484987 6.2777703e-05 1.3224311e-38)
(-2.7324611e-05 -2.4315833e-06 1.4327292e-21)
(-2.8568305e-05 -2.2018386e-06 5.7845948e-27)
(-2.9310484e-05 -1.9175245e-06 -4.1031289e-23)
(-2.890071e-05 -1.4858765e-06 0)
(-2.8025958e-05 -1.1301453e-06 -1.3245569e-21)
(-2.7430954e-05 -1.0035451e-06 -6.6927394e-22)
(-2.7093959e-05 -9.4146519e-07 1.3775324e-39)
(-2.6947815e-05 -9.2759225e-07 -1.2856969e-39)
(-2.7001456e-05 -9.2258359e-07 -6.6106261e-22)
(-2.7042234e-05 -8.6568908e-07 -7.0649951e-22)
(-2.6876495e-05 -7.5215619e-07 3.2272144e-22)
(-2.6546644e-05 -6.2119297e-07 1.0822117e-23)
(-2.6163591e-05 -4.9880209e-07 1.0890393e-23)
(-2.5792005e-05 -3.9018629e-07 1.0954523e-23)
(-2.5456287e-05 -2.9379898e-07 -1.1008922e-23)
(-2.5159603e-05 -2.0579316e-07 5.5275511e-24)
(-2.4838398e-05 -1.0401739e-07 -5.5470748e-24)
(-2.4431885e-05 8.1095898e-09 -4.4540301e-23)
(-2.4003163e-05 1.0527085e-07 8.9429098e-23)
(-2.3638627e-05 1.8959357e-07 -1.8508644e-22)
(-2.330292e-05 2.6819082e-07 1.7433937e-22)
(-2.288734e-05 3.5339579e-07 -3.4960564e-22)
(-2.2374389e-05 4.3348991e-07 -9.1835496e-41)
(-2.1860356e-05 4.9987509e-07 -1.8367099e-40)
(-2.138047e-05 5.6038892e-07 3.6466587e-22)
(-2.08525e-05 6.2288075e-07 -7.3164891e-22)
(-2.0177478e-05 6.8490979e-07 -1.8525743e-28)
(-1.9281726e-05 7.3591498e-07 1.7448744e-39)
(-1.8119756e-05 7.5315874e-07 7.2221081e-22)
(-1.6771199e-05 7.1591431e-07 -7.3156657e-22)
(-1.5541145e-05 6.12985e-07 -7.1934886e-22)
(-1.4641329e-05 4.4650364e-07 -4.8700407e-23)
(-1.4064362e-05 2.4502504e-07 3.9462446e-22)
(-1.4077952e-05 1.1108979e-08 -1.243458e-23)
(-1.4489974e-05 -2.609983e-07 -3.4646802e-22)
(-1.5468711e-05 -6.2741018e-07 6.8667602e-22)
(-1.6989509e-05 -1.0746225e-06 4.902851e-23)
(-1.8732159e-05 -1.5872119e-06 -1.5585227e-21)
(-2.1505684e-05 -2.2144379e-06 -3.1339113e-21)
(-2.4681266e-05 -2.9356592e-06 4.6912402e-23)
(-3.266256e-05 -4.1458713e-06 3.266008e-26)
(-3.460804e-05 -1.8376079e-06 2.8360263e-38)
(-5.9940176e-05 -4.5221253e-05 6.8656467e-27)
(-6.8654251e-05 -4.5739847e-05 -1.3461531e-22)
(-6.9155763e-05 -4.0917201e-05 -2.7063e-22)
(-5.6402672e-05 -2.5005e-05 1.4769615e-22)
(-4.5484073e-05 -1.4233955e-05 3.1680828e-22)
(-3.636161e-05 -8.0694093e-06 1.7379763e-22)
(-3.0374214e-05 -5.6649075e-06 1.8876517e-22)
(-2.698686e-05 -4.3191232e-06 -4.4514173e-22)
(-2.5239139e-05 -3.3865153e-06 -3.0784234e-22)
(-2.5144746e-05 -3.0347484e-06 -4.6667581e-22)
(-2.5129202e-05 -2.6989611e-06 4.613564e-22)
(-2.582739e-05 -2.6365943e-06 -4.940227e-22)
(-3.307394e-06 -5.6856693e-06 0)
(-4.0370651e-06 -8.6490637e-06 1.6024913e-23)
(-4.8375079e-06 -1.2050399e-05 5.8263142e-23)
(-6.2602077e-06 -1.5414833e-05 -5.3242944e-23)
(-8.7341638e-06 -1.9942757e-05 2.4316985e-23)
(-1.1457862e-05 -2.5428073e-05 -9.2974387e-23)
(-1.3823812e-05 -2.8640788e-05 0)
(-1.7187169e-05 -3.1695912e-05 -2.9387359e-39)
(-2.0509442e-05 -3.5550072e-05 -8.2421703e-23)
(-2.4559112e-05 -3.8041454e-05 1.0998421e-26)
(-3.1296102e-05 -4.3802074e-05 -1.4749271e-22)
(-3.663291e-05 -4.897179e-05 7.4842187e-23)
(-3.9401944e-05 -4.6904568e-05 -3.593717e-23)
(-4.4900405e-05 -4.7622205e-05 1.0351213e-22)
(-4.8417523e-05 -4.9212418e-05 7.3468397e-40)
(-5.0006341e-05 -4.5422678e-05 6.6986167e-23)
(-5.4554994e-05 -4.514809e-05 -6.470837e-23)
(-3.1046878e-06 -3.3037431e-06 9.6825267e-23)
(-2.544558e-06 -1.4108172e-06 -2.6147004e-22)
(-2.4576927e-06 -5.2843092e-08 1.8552211e-22)
(-2.5255306e-06 1.2818151e-06 1.6440361e-22)
(-2.7261586e-06 2.5930876e-06 -1.3584174e-22)
(-3.2712821e-06 3.9503128e-06 -1.2427421e-26)
(-3.7505268e-06 5.8141816e-06 1.8367099e-40)
(-4.1098588e-06 8.0911961e-06 -1.5766781e-23)
(-4.8707235e-06 1.0012686e-05 -2.9731536e-23)
(-5.9709458e-06 1.1582667e-05 2.5713939e-39)
(-7.1732132e-06 1.3444042e-05 -5.0871091e-23)
(-8.2821736e-06 1.5730222e-05 2.4520472e-23)
(-9.5703304e-06 1.7725859e-05 0)
(-1.1193142e-05 1.9318247e-05 -2.2917778e-23)
(-1.2962535e-05 2.1159852e-05 3.278105e-23)
(-1.4993632e-05 2.3443584e-05 -2.0862903e-23)
(-1.650344e-05 2.6798898e-05 2.2499697e-39)
(-1.8077145e-05 2.9308537e-05 -2.1877945e-23)
(-2.0475587e-05 2.9583804e-05 4.4691079e-23)
(-2.2317719e-05 2.9886989e-05 -2.2115129e-23)
(-2.4247323e-05 3.0310628e-05 -1.0819061e-23)
(-2.6102079e-05 3.1756223e-05 3.2130895e-23)
(-2.7260527e-05 3.3543632e-05 1.0949749e-23)
(-2.9806481e-05 3.3207734e-05 -2.3289936e-23)
(-3.1083768e-05 3.2388505e-05 1.1804131e-23)
(-3.231172e-05 3.1910401e-05 -1.1819737e-23)
(-3.3524587e-05 3.1456723e-05 -9.171695e-27)
(-3.472074e-05 3.1763833e-05 -2.3164006e-23)
(-3.5426583e-05 3.2910635e-05 -8.7701807e-27)
(-3.7428468e-05 3.2823323e-05 -1.1479437e-41)
(-3.8243244e-05 3.1205036e-05 -2.9387359e-39)
(-3.8403601e-05 2.9659413e-05 -1.2950865e-23)
(-3.8476457e-05 2.8446363e-05 -6.5073688e-24)
(-3.8507065e-05 2.7313099e-05 6.4687699e-24)
(-3.8605925e-05 2.6613984e-05 -6.4517745e-24)
(-3.8840724e-05 2.5592174e-05 -1.2720695e-23)
)
;
    }
    Outlet
    {
        type            calculated;
        value           uniform (0 0 0);
    }
}


// ************************************************************************* //
