/*--------------------------------*- C++ -*----------------------------------*\
| =========                 |                                                 |
| \\      /  F ield         | OpenFOAM: The Open Source CFD Toolbox           |
|  \\    /   O peration     | Version:  v2006                                 |
|   \\  /    A nd           | Website:  www.openfoam.com                      |
|    \\/     M anipulation  |                                                 |
\*---------------------------------------------------------------------------*/
FoamFile
{
    version     2.0;
    format      ascii;
    class       volScalarField;
    location    "6000";
    object      yPlus;
}
// * * * * * * * * * * * * * * * * * * * * * * * * * * * * * * * * * * * * * //

dimensions      [0 0 0 0 0 0 0];


internalField   uniform 0;

boundaryField
{
    Side
    {
        type            empty;
    }
    Ground
    {
        type            calculated;
        value           nonuniform List<scalar> 
322
(
1.9592051
1.9896104
2.0215454
2.0674892
2.1226452
2.1300043
2.1863813
2.5193009
2.2568871
2.423141
2.3065623
2.2170187
2.139227
2.0762645
2.0259261
1.9881535
1.9623062
1.949769
2.4756692
2.4809063
2.4812955
2.4815309
2.4822377
2.4826703
2.4828514
2.4826161
2.4819963
2.4804477
2.4799301
2.4799173
2.479836
2.4791318
2.4772269
2.4734812
2.4671654
2.4574321
2.4432967
2.4236027
2.3970368
2.3619835
2.3169453
2.2598458
2.1882578
2.0999889
1.9921396
1.8613238
1.7034267
1.5102377
1.2748324
0.92648527
0.44809079
0.71038834
1.1085521
1.3836568
1.6348538
1.8358158
1.9948573
2.119296
2.2196524
2.3082449
2.3858523
2.4544921
2.5128181
2.5622154
2.5873888
2.4581635
2.3773588
2.3169895
2.2672129
2.2294497
2.2008509
2.1790282
2.1620671
2.1487726
2.1383767
2.1301162
2.1234884
2.1180938
2.1135207
2.1095799
2.1061195
2.1028768
2.1000901
2.0974419
2.0949376
2.0923571
2.0896159
2.0866003
2.0832553
2.0795578
2.0755978
2.0711749
2.0664876
2.0610965
2.0551398
2.0484718
2.0409768
2.0327147
2.0231836
2.0126544
2.0006519
1.9870208
1.9722045
1.9562001
1.9395706
1.9213873
1.9015783
1.8808117
1.858751
1.8351074
1.8101161
1.7836532
1.7553086
1.7255899
1.6941116
1.6606622
1.6236573
1.5843591
1.5427149
1.4997828
1.4553932
1.408225
1.3574619
1.3030851
1.2423647
1.1689746
1.1075638
1.0430266
0.98609166
0.91211519
0.82842379
0.73310418
0.63323276
0.54285456
0.48648682
0.49484361
0.5575529
0.64131856
0.72874009
0.81482138
0.89655484
0.97040365
1.0337157
1.086403
1.1305858
1.1730634
1.219302
1.2708958
1.3229484
1.3687215
1.4054103
1.4359139
1.4661877
1.5007512
1.5381522
1.5730363
1.6034926
1.6316339
1.6595611
1.6863001
1.7104428
1.7318833
1.7522546
1.7734398
1.7953433
1.8160763
1.8343232
1.8502822
1.8658874
1.8832574
1.9029663
1.923431
1.9431409
1.9633589
1.9862526
2.0122506
2.0391712
2.0671355
2.0965832
2.1280104
2.1602283
2.1928021
2.2252129
2.257342
2.2886339
2.3187058
2.3478723
2.3770283
2.4061811
2.4330281
2.4573332
2.4810413
2.5055367
2.5282758
2.5480028
2.5655246
2.5848092
2.6059454
2.6235403
2.6387057
2.6539934
2.6725217
2.690031
2.7050193
2.718151
2.7329181
2.7497518
2.7633383
2.7749332
2.7865506
2.8013036
2.8164871
2.8293473
2.8405132
2.8527096
2.8675308
2.8806475
2.8920432
2.9018168
2.9126733
2.9250787
2.935321
2.9442018
2.9524087
2.9620326
2.9724194
2.981053
2.9881604
2.9946153
3.002074
3.0092814
3.0149742
3.0194294
3.0234914
3.0280253
3.0318027
3.0342744
3.0355755
3.0367482
3.0384994
3.0392742
3.0388704
3.0375995
3.036017
3.034409
3.0318462
3.0282071
3.0235843
3.0184398
3.013026
3.0066735
2.999379
2.9912317
2.9828927
2.9745917
2.9652811
2.9549199
2.9437159
2.9319433
2.919755
2.9068036
2.8930358
2.8784783
2.86342
2.8480246
2.8319433
2.8151042
2.7975353
2.7794559
2.7609668
2.7418724
2.7222802
2.7021517
2.6815358
2.6606139
2.6395331
2.6178889
2.5944677
1.7305284
1.7727212
1.8149526
1.8569972
1.8985488
1.9389538
1.9771722
2.0112684
2.0382049
2.0519062
2.0403748
1.9841412
1.8661062
1.710643
1.6195426
1.6722767
1.7962334
1.932779
2.0853669
2.2556417
2.4411206
2.6300606
2.8087598
2.9303594
2.9693724
2.8161621
2.7112915
1.6869299
1.6449349
1.6081789
1.5756306
1.5464124
1.5200191
1.496032
1.4740888
1.4538628
1.435391
1.4181655
1.4027778
1.3873847
1.3754989
1.3590187
1.3543672
1.3333779
)
;
    }
    Inlet
    {
        type            calculated;
        value           uniform 0;
    }
    Airfoil
    {
        type            calculated;
        value           nonuniform List<scalar> 
321
(
2.5235384
3.7363621
3.251843
2.8328715
2.5056041
2.2923769
2.1703703
2.1184005
2.0899315
2.0694689
2.0537488
2.0363265
2.0120563
1.9842042
1.9536745
1.9225988
1.893761
1.8671951
1.838552
1.8139455
1.785211
1.7593499
1.7303365
1.7046071
1.6755056
1.6502926
1.6215616
1.5977218
1.5708876
1.5452939
1.5212703
1.4927041
1.4704891
1.4421997
1.4163858
1.3926137
1.3611924
1.3351813
1.3064777
1.2687866
1.2480899
1.2068107
1.1611197
1.141641
1.0830582
1.0308895
1.0101844
0.93812041
0.87472823
0.84428594
0.75448376
0.67150751
0.6389773
0.53158246
0.49957755
0.52722071
0.63148631
0.7762545
0.79962108
0.91502127
1.0559143
1.1055458
1.1543472
1.2719906
1.3536395
1.3594097
1.44407
1.5390769
1.5507408
1.5896754
1.6740992
1.7308693
1.73063
1.7972093
1.8923329
1.9060106
1.9111603
1.9947137
2.0865231
2.0680055
2.0919007
2.1744938
2.2339833
2.2185319
2.2514312
2.3329176
2.3680297
2.3544334
2.388484
2.4642067
2.4856392
2.4760443
2.5068335
2.5726219
2.5899589
2.5842438
2.6110672
2.6694051
2.6874118
2.6785941
2.7056582
2.7800561
2.8124086
2.7931455
2.8102953
2.904299
2.9728941
2.9411728
2.9322944
3.0209429
3.1307184
3.0962022
3.0823578
3.1227429
3.2000216
3.1978386
3.192971
3.2025217
3.2299607
3.2454543
3.2386151
3.2386313
3.3032942
3.3765019
3.3311743
3.2958226
3.4262174
3.6657344
3.669482
3.5560611
3.5381546
3.9059313
4.200442
3.960178
3.8483976
4.0496361
4.4502322
4.4225272
4.2412861
4.1681971
4.4660256
4.7122705
4.460099
4.3380766
4.4707987
4.8545227
4.8889496
4.6562021
4.558185
4.8014412
5.0697758
4.88141
4.735179
4.6859439
4.9045201
5.0237486
4.7965306
4.6997785
4.7514266
5.0063087
5.0401588
4.8279508
4.7527818
4.8484628
5.0374197
4.9818367
4.8180742
4.76412
4.86657
4.9874528
4.8792454
4.7488047
4.722222
4.8881678
5.0239866
4.8933067
4.7809583
4.7506511
4.8463275
4.9125913
4.8073928
4.7202024
4.6983013
4.7835034
4.8353125
4.7366153
4.6648915
4.6796503
4.8308463
4.9192889
4.8126433
4.7335755
4.7068936
4.7523071
4.7769508
4.6997574
4.6422903
4.6380779
4.7095713
4.7419542
4.6532968
4.588475
4.5871492
4.6656826
4.7104646
4.6627298
4.6925622
4.8359193
5.1049905
5.409735
5.7363527
6.1240442
6.5667404
7.1044493
22.308068
22.628869
22.728467
22.406835
21.970809
21.681886
21.508529
21.42066
21.411208
21.388379
21.282742
21.117963
20.938655
20.769587
20.619362
20.48886
20.351512
20.182868
20.008489
19.863074
19.733237
19.5738
19.37502
19.175516
18.991917
18.790124
18.524923
18.157167
17.652574
17.022521
16.399178
15.899911
15.528098
15.416611
15.497905
15.787823
16.305427
16.82625
17.661826
18.53016
20.837673
23.459905
43.401652
44.653308
40.088287
34.401142
29.483885
25.864093
23.616863
22.211514
21.482422
21.476191
21.443172
21.850239
10.99408
13.387463
16.03932
18.221132
20.822243
24.127645
26.1078
27.903989
30.097105
31.872989
35.117396
37.605055
38.044538
39.922041
40.779431
41.186606
42.993547
8.1740517
6.0631519
5.147206
6.2808023
8.1985567
10.201852
12.616173
14.132804
15.377022
16.95761
18.720963
20.046026
21.025307
22.334497
23.946873
25.775402
26.746754
25.610092
24.892232
25.769558
26.687406
27.703031
26.554477
24.555744
24.978035
25.45813
25.932097
26.533549
25.823575
23.516985
22.992903
23.212812
23.4787
23.748162
24.096662
24.444869
)
;
    }
    Outlet
    {
        type            calculated;
        value           uniform 0;
    }
}


// ************************************************************************* //
