# Wall shear stress
# Time          	patch           	min             	max             
1000            	Airfoil	(-1.33940199e-04 -1.18782777e-04 -6.19800684e-20)	(3.07790658e-06 1.69328959e-04 1.07582273e-19)
2000            	Airfoil	(-1.38732795e-04 -8.28135604e-05 -6.19718972e-20)	(6.37050794e-06 2.09773031e-04 1.07585642e-19)
3000            	Airfoil	(-1.48514599e-04 -7.22141039e-05 -6.19680745e-20)	(8.28916747e-06 2.24252556e-04 1.07584534e-19)
4000            	Airfoil	(-1.53402553e-04 -6.70548028e-05 -6.19685431e-20)	(9.29019662e-06 2.31467529e-04 1.07586171e-19)
